86
 energy: -16.185142690485 gnorm: 0.000655694627 xtb: 6.5.0 (97a52f5)
C            1.50270755241898       -0.52706892959189        0.87994968066656
C            2.92105559935878       -0.89135043371683        0.49102166805118
O            3.53090617651127       -1.75158222438358        1.42937705505480
C            4.81333458208456       -2.02758837443606        1.05718171248599
O            5.35879301325393       -1.60790582547659        0.06067425703658
C            5.58277141004684       -2.91684906415357        2.00258394230249
O            6.31017337383606       -2.14447036734928        2.94689780790839
C            7.05158562441077       -2.88140101923681        3.84993543316676
C            7.78614327146131       -2.17226443983120        4.81832399874097
C            8.54560026219582       -2.82137173265489        5.74893746858647
C            8.62469809092740       -4.22344217068711        5.77181629593725
C            9.43411240661886       -4.87057452561617        6.76345322148650
C            9.62671204106564       -6.20814538077497        6.85513552782135
C           10.40113408107574       -6.91193160020815        7.81779869531841
C           11.16666361730576       -6.47903139657205        8.95689571957715
C           11.31073443494396       -5.07208336658502        9.44891671650503
C           10.10291648003928       -4.60408835399513       10.24730927159323
C           11.71155113810713       -7.59778266930028        9.56050874883891
C           12.58316179757784       -7.59539996502967       10.76368190733770
C           11.29074423526588       -8.75648493761612        8.81275162386282
N           10.52973147659846       -8.26098879791894        7.78726860257027
B            9.95700026677622       -9.11172843361619        6.64582292272649
F           10.60143647065548       -8.72159249104120        5.47520955483532
F            8.58616616250287       -8.90624426857902        6.57177446214205
N           10.23759569067599      -10.59833133663333        6.93344183809569
C            9.76093769870412      -11.63341170480302        6.20128767116363
C            8.85391054930677      -11.54530039382198        5.07972210170130
N            8.85075554686553      -10.49196133602193        4.19095175723902
C            7.89824101193670      -10.67873632731116        3.23946261442452
C            7.58394451744286       -9.73120602919906        2.14870199212868
C            7.25971818313355      -11.89012318978478        3.51227361318872
C            6.09587252149857      -12.45754281989274        2.76094452057592
C            4.75996588217609      -11.91701063851339        3.24762488953926
C            7.83568207720864      -12.42893310847044        4.67172559679380
C            7.35652556729374      -13.64225404989643        5.38106776512605
C           10.36617512675066      -12.82553275894040        6.76650872179981
C           10.36666713588136      -14.15003621538805        6.33290720525592
C           11.10486120243050      -15.08142139891156        7.02702339652968
C           11.86619828663566      -14.70695471513537        8.12820558732291
C           11.90692264019344      -13.39509950898222        8.54955963238672
C           11.14883453632836      -12.44039591056555        7.87522335756620
C           11.03266948519031      -10.99092128932419        8.00474902491458
C           11.52062278199037      -10.13590490318549        8.98553901303747
C           12.19371145017494      -10.67066660923670       10.19707951759905
C            7.89092007613910       -4.93441059066320        4.80705862499166
C            7.12835855827627       -4.28685489858156        3.87579632823254
H            1.03329679020702        0.13601886334606        0.15121837127729
H            1.48584858934137       -0.02863178300061        1.84930551827593
H            0.88610500024068       -1.42166066219866        0.96805776920771
H            3.55435898161379        0.00232084834866        0.40662162544414
H            2.95183870631058       -1.39574094104874       -0.48431937455114
H            6.28658854299837       -3.53304479757790        1.43574443618245
H            4.88911254236198       -3.56773957092474        2.54293367548996
H            7.73348032693757       -1.09812204035200        4.80644940926985
H            9.09831034625851       -2.25644743558328        6.47986235052590
H            9.91207267839575       -4.22814618209086        7.47618569120282
H            9.14846934181692       -6.83781950487565        6.12923097491596
H           11.50775421732668       -4.40942923878886        8.59917594028027
H           12.21530081617260       -4.98825679169000       10.06098822538432
H            9.18743050423084       -4.67331062968488        9.65853173051887
H           10.20559079170262       -3.56938507626878       10.58003523109218
H            9.95718870503587       -5.22365875635079       11.13340360770549
H           13.05226376260304       -6.62544579402589       10.92080111276685
H           13.39225696426080       -8.31865506991815       10.66192423415226
H           12.01068075465261       -7.83310570404059       11.66064118641240
H            9.43284194966381       -9.67594212536733        4.35806495014796
H            8.32301723779089       -8.93131658698152        2.10756432829918
H            6.60493091980463       -9.27612816937350        2.29887665597423
H            7.58267908242163      -10.23438977587601        1.18169071385483
H            6.11771411011181      -13.55100436387689        2.84333622790917
H            6.22522989382525      -12.24846405104666        1.69217583675666
H            4.60536224709410      -12.14164612885027        4.30382066026664
H            3.91985571677870      -12.33984872263097        2.69307349562546
H            4.71258524033380      -10.83233403863208        3.14201009386414
H            6.27186307446440      -13.62458440610013        5.48800657565250
H            7.77826488825667      -13.70653940001536        6.38407069775558
H            7.62222529920986      -14.54730343372373        4.83439940274818
H            9.83236898529383      -14.42429391129791        5.44183820814240
H           11.10737966208595      -16.10895954600848        6.70252563019373
H           12.44946282933486      -15.45004376692552        8.64677254193152
H           12.54878530317623      -13.11052863096416        9.36246939761362
H           11.74158816274242      -11.61189258261942       10.50836264453675
H           12.08523766289071       -9.99653425596166       11.04438892985624
H           13.25659668210319      -10.83488149937611       10.01807973028334
H            7.92214236722757       -6.00868865509305        4.80385137147924
H            6.57989623164121       -4.86255518094134        3.15318912740794
