      -----------------------------------------------------------      
     |                   =====================                   |     
     |                           x T B                           |     
     |                   =====================                   |     
     |                         S. Grimme                         |     
     |          Mulliken Center for Theoretical Chemistry        |     
     |                    University of Bonn                     |     
      -----------------------------------------------------------      

   * xtb version 6.5.0 (97a52f5) compiled by 'conda@d2599ee0d4f4' on 2022-05-15

   xtb is free software: you can redistribute it and/or modify it under
   the terms of the GNU Lesser General Public License as published by
   the Free Software Foundation, either version 3 of the License, or
   (at your option) any later version.
   
   xtb is distributed in the hope that it will be useful,
   but WITHOUT ANY WARRANTY; without even the implied warranty of
   MERCHANTABILITY or FITNESS FOR A PARTICULAR PURPOSE.  See the
   GNU Lesser General Public License for more details.
   
   Cite this work as:
   * C. Bannwarth, E. Caldeweyher, S. Ehlert, A. Hansen, P. Pracht,
     J. Seibert, S. Spicher, S. Grimme, WIREs Comput. Mol. Sci., 2020, 11,
     e01493. DOI: 10.1002/wcms.1493
   
   for GFN2-xTB:
   * C. Bannwarth, S. Ehlert and S. Grimme., J. Chem. Theory Comput., 2019,
     15, 1652-1671. DOI: 10.1021/acs.jctc.8b01176
   for GFN1-xTB:
   * S. Grimme, C. Bannwarth, P. Shushkov, J. Chem. Theory Comput., 2017,
     13, 1989-2009. DOI: 10.1021/acs.jctc.7b00118
   for GFN0-xTB:
   * P. Pracht, E. Caldeweyher, S. Ehlert, S. Grimme, ChemRxiv, 2019, preprint.
     DOI: 10.26434/chemrxiv.8326202.v1
   for GFN-FF:
   * S. Spicher and S. Grimme, Angew. Chem. Int. Ed., 2020, 59, 15665-15673.
     DOI: 10.1002/anie.202004239
   
   for ALPB and GBSA implicit solvation:
   * S. Ehlert, M. Stahn, S. Spicher, S. Grimme, J. Chem. Theory Comput.,
     2021, 17, 4250-4261. DOI: 10.1021/acs.jctc.1c00471
   
   for DFT-D4:
   * E. Caldeweyher, C. Bannwarth and S. Grimme, J. Chem. Phys., 2017,
     147, 034112. DOI: 10.1063/1.4993215
   * E. Caldeweyher, S. Ehlert, A. Hansen, H. Neugebauer, S. Spicher,
     C. Bannwarth and S. Grimme, J. Chem. Phys., 2019, 150, 154122.
     DOI: 10.1063/1.5090222
   * E. Caldeweyher, J.-M. Mewes, S. Ehlert and S. Grimme, Phys. Chem. Chem. Phys.
     2020, 22, 8499-8512. DOI: 10.1039/D0CP00502A
   
   for sTDA-xTB:
   * S. Grimme and C. Bannwarth, J. Chem. Phys., 2016, 145, 054103.
     DOI: 10.1063/1.4959605
   
   in the mass-spec context:
   * V. Asgeirsson, C. Bauer and S. Grimme, Chem. Sci., 2017, 8, 4879.
     DOI: 10.1039/c7sc00601b
   * J. Koopman and S. Grimme, ACS Omega 2019, 4, 12, 15120-15133.
     DOI: 10.1021/acsomega.9b02011
   
   for metadynamics refer to:
   * S. Grimme, J. Chem. Theory Comput., 2019, 155, 2847-2862
     DOI: 10.1021/acs.jctc.9b00143
   
   for SPH calculations refer to:
   * S. Spicher and S. Grimme, J. Chem. Theory Comput., 2021, 17, 1701-1714
     DOI: 10.1021/acs.jctc.0c01306
   
   with help from (in alphabetical order)
   P. Atkinson, C. Bannwarth, F. Bohle, G. Brandenburg, E. Caldeweyher
   M. Checinski, S. Dohm, S. Ehlert, S. Ehrlich, I. Gerasimov, C. Hölzer
   A. Katbashev, J. Koopman, C. Lavigne, S. Lehtola, F. März, M. Müller,
   F. Musil, H. Neugebauer, J. Pisarek, C. Plett, P. Pracht, F. Pultar,
   J. Seibert, P. Shushkov, S. Spicher, M. Stahn, M. Steiner, T. Strunk,
   J. Stückrath, T. Rose, and J. Unsleber
   
 * started run on 2024/08/24 at 16:08:09.076     

           -------------------------------------------------
          |                Calculation Setup                |
           -------------------------------------------------

          program call               : xtb 2.xyz --chrg 0 --gbsa water
          coordinate file            : 2.xyz
          omp threads                :                    16

   ID    Z sym.   atoms
    1   35 Br     1
    2    6 C      2-5, 8-15
    3    7 N      6
    4    5 B      7
    5    1 H      16-24

           -------------------------------------------------
          |                 G F N 2 - x T B                 |
           -------------------------------------------------

        Reference                      10.1021/acs.jctc.8b01176
      * Hamiltonian:
        H0-scaling (s, p, d)           1.850000    2.230000    2.230000
        zeta-weighting                 0.500000
      * Dispersion:
        s8                             2.700000
        a1                             0.520000
        a2                             5.000000
        s9                             5.000000
      * Repulsion:
        kExp                           1.500000    1.000000
        rExp                           1.000000
      * Coulomb:
        alpha                          2.000000
        third order                    shell-resolved
        anisotropic                    true
        a3                             3.000000
        a5                             4.000000
        cn-shift                       1.200000
        cn-exp                         4.000000
        max-rad                        5.000000

      * Solvation model:               GBSA
        Solvent                        water
        Parameter file                 internal GFN2-xTB/GBSA
        Dielectric constant                8.0200E+01
        Reference state                gsolv [1 M gas/solution]
        Free energy shift                  1.8574E-03 Eh       1.1656E+00 kcal/mol
        Temperature                        2.9815E+02 K
        Density                            1.0000E+00 kg/L
        Solvent mass                       1.8000E+01 g/mol
        Interaction kernel             Still
        Born radius scaling (c1)           1.5524E+00
        Born radii integrator          GBOBC
        Born offset                        2.4628E-02 a0       4.6540E-02 AA
        H-bond correction              true
        Ion screening                  false
        Surface tension                    1.0000E-05 Eh       1.5569E+01 dyn/cm
        Grid points                               230 per atom

          ...................................................
          :                      SETUP                      :
          :.................................................:
          :  # basis functions                  75          :
          :  # atomic orbitals                  74          :
          :  # shells                           40          :
          :  # electrons                        72          :
          :  max. iterations                   250          :
          :  Hamiltonian                  GFN2-xTB          :
          :  restarted?                      false          :
          :  GBSA solvation                   true          :
          :  PC potential                    false          :
          :  electronic temp.          300.0000000     K    :
          :  accuracy                    1.0000000          :
          :  -> integral cutoff          0.2500000E+02      :
          :  -> integral neglect         0.1000000E-07      :
          :  -> SCF convergence          0.1000000E-05 Eh   :
          :  -> wf. convergence          0.1000000E-03 e    :
          :  Broyden damping             0.4000000          :
          ...................................................

 iter      E             dE          RMSdq      gap      omega  full diag
   1    -39.0472437 -0.390472E+02  0.633E+00    2.67       0.0  T
   2    -39.1177297 -0.704860E-01  0.407E+00    2.73       1.0  T
   3    -39.0803023  0.374274E-01  0.219E+00    2.76       1.0  T
   4    -39.1385852 -0.582829E-01  0.635E-01    2.74       1.0  T
   5    -39.1438828 -0.529764E-02  0.291E-01    2.76       1.0  T
   6    -39.1437388  0.143970E-03  0.193E-01    2.76       1.0  T
   7    -39.1441095 -0.370612E-03  0.107E-01    2.77       1.0  T
   8    -39.1441581 -0.486363E-04  0.792E-02    2.77       1.0  T
   9    -39.1441669 -0.877680E-05  0.542E-02    2.77       1.0  T
  10    -39.1441902 -0.233753E-04  0.162E-02    2.77       1.3  T
  11    -39.1441912 -0.928950E-06  0.861E-03    2.77       2.4  T
  12    -39.1441912 -0.501154E-07  0.527E-03    2.77       3.9  T
  13    -39.1441920 -0.801460E-06  0.168E-03    2.77      12.1  T
  14    -39.1441921 -0.532934E-07  0.790E-04    2.77      25.8  T
  15    -39.1441921 -0.374366E-08  0.484E-04    2.77      42.2  T

   *** convergence criteria satisfied after 15 iterations ***

         #    Occupation            Energy/Eh            Energy/eV
      -------------------------------------------------------------
         1        2.0000           -0.8294529             -22.5706
       ...           ...                  ...                  ...
        30        2.0000           -0.4215089             -11.4698
        31        2.0000           -0.4183854             -11.3848
        32        2.0000           -0.4100753             -11.1587
        33        2.0000           -0.3981021             -10.8329
        34        2.0000           -0.3925819             -10.6827
        35        2.0000           -0.3879430             -10.5565
        36        2.0000           -0.3725577             -10.1378 (HOMO)
        37                         -0.2708950              -7.3714 (LUMO)
        38                         -0.2677455              -7.2857
        39                         -0.2173874              -5.9154
        40                         -0.2048274              -5.5736
        41                         -0.1928050              -5.2465
       ...                                ...                  ...
        74                          0.6795985              18.4928
      -------------------------------------------------------------
                  HL-Gap            0.1016627 Eh            2.7664 eV
             Fermi-level           -0.3217263 Eh           -8.7546 eV

 SCC (total)                   0 d,  0 h,  0 min,  0.029 sec
 SCC setup                      ...        0 min,  0.000 sec (  0.691%)
 Dispersion                     ...        0 min,  0.000 sec (  1.168%)
 classical contributions        ...        0 min,  0.000 sec (  0.123%)
 integral evaluation            ...        0 min,  0.001 sec (  3.185%)
 iterations                     ...        0 min,  0.025 sec ( 88.596%)
 molecular gradient             ...        0 min,  0.002 sec (  5.529%)
 printout                       ...        0 min,  0.000 sec (  0.654%)

         :::::::::::::::::::::::::::::::::::::::::::::::::::::
         ::                     SUMMARY                     ::
         :::::::::::::::::::::::::::::::::::::::::::::::::::::
         :: total energy             -38.538181593534 Eh    ::
         :: total w/o Gsasa/hb       -38.534106807916 Eh    ::
         :: gradient norm              0.105869554633 Eh/a0 ::
         :: HOMO-LUMO gap              2.766382290739 eV    ::
         ::.................................................::
         :: SCC energy               -39.144192083146 Eh    ::
         :: -> isotropic ES            0.033185373699 Eh    ::
         :: -> anisotropic ES          0.002807310815 Eh    ::
         :: -> anisotropic XC          0.019638611293 Eh    ::
         :: -> dispersion             -0.027415565255 Eh    ::
         :: -> Gsolv                  -0.007366631705 Eh    ::
         ::    -> Gelec               -0.003291846086 Eh    ::
         ::    -> Gsasa               -0.005266992945 Eh    ::
         ::    -> Ghb                 -0.000665235800 Eh    ::
         ::    -> Gshift               0.001857443127 Eh    ::
         :: repulsion energy           0.605986422735 Eh    ::
         :: add. restraining           0.000000000000 Eh    ::
         :: total charge              -0.000000000000 e     ::
         :::::::::::::::::::::::::::::::::::::::::::::::::::::

           -------------------------------------------------
          |                Property Printout                |
           -------------------------------------------------

    * Orbital Energies and Occupations

         #    Occupation            Energy/Eh            Energy/eV
      -------------------------------------------------------------
         1        2.0000           -0.8294529             -22.5706
       ...           ...                  ...                  ...
        24        2.0000           -0.4680992             -12.7376
        25        2.0000           -0.4594166             -12.5014
        26        2.0000           -0.4544626             -12.3666
        27        2.0000           -0.4422016             -12.0329
        28        2.0000           -0.4395048             -11.9595
        29        2.0000           -0.4348265             -11.8322
        30        2.0000           -0.4215089             -11.4698
        31        2.0000           -0.4183854             -11.3848
        32        2.0000           -0.4100753             -11.1587
        33        2.0000           -0.3981021             -10.8329
        34        2.0000           -0.3925819             -10.6827
        35        2.0000           -0.3879430             -10.5565
        36        2.0000           -0.3725577             -10.1378 (HOMO)
        37                         -0.2708950              -7.3714 (LUMO)
        38                         -0.2677455              -7.2857
        39                         -0.2173874              -5.9154
        40                         -0.2048274              -5.5736
        41                         -0.1928050              -5.2465
        42                         -0.1657757              -4.5110
        43                         -0.1109732              -3.0197
        44                         -0.0576922              -1.5699
        45                          0.0177496               0.4830
        46                          0.0428442               1.1658
        47                          0.0468320               1.2744
       ...                                ...                  ...
        74                          0.6795985              18.4928
      -------------------------------------------------------------
                  HL-Gap            0.1016627 Eh            2.7664 eV
             Fermi-level           -0.3217263 Eh           -8.7546 eV

     #   Z          covCN         q      C6AA      α(0)
     1  35 Br       1.012    -0.235   191.582    22.317
     2   6 C        2.815    -0.007    28.172     8.696
     3   6 C        2.971    -0.033    28.818     8.805
     4   6 C        2.901    -0.059    29.456     8.899
     5   6 C        2.849     0.007    27.868     8.652
     6   7 N        2.665    -0.048    22.170     6.993
     7   5 B        2.717     0.212    18.222     7.155
     8   6 C        2.824    -0.114    30.873     9.104
     9   6 C        2.916    -0.034    28.853     8.808
    10   6 C        2.975     0.008    27.842     8.655
    11   6 C        2.922    -0.037    28.928     8.820
    12   6 C        2.910    -0.037    28.919     8.818
    13   6 C        2.908    -0.034    28.850     8.807
    14   6 C        2.911    -0.051    29.258     8.870
    15   6 C        2.907     0.055    26.764     8.483
    16   1 H        0.925     0.040     2.455     2.450
    17   1 H        0.925     0.060     2.200     2.319
    18   1 H        0.926     0.063     2.163     2.300
    19   1 H        0.925     0.028     2.609     2.526
    20   1 H        0.925     0.033     2.541     2.493
    21   1 H        0.925     0.047     2.362     2.403
    22   1 H        0.925     0.042     2.426     2.436
    23   1 H        0.925     0.046     2.371     2.408
    24   1 H        0.926     0.048     2.348     2.396

 Mol. C6AA /au·bohr⁶  :      10192.874648
 Mol. C8AA /au·bohr⁸  :     305760.428834
 Mol. α(0) /au        :        163.615511


Wiberg/Mayer (AO) data.
largest (>0.10) Wiberg bond orders for each atom

 ---------------------------------------------------------------------------
     #   Z sym  total        # sym  WBO       # sym  WBO       # sym  WBO
 ---------------------------------------------------------------------------
     1  35 Br   1.095 --     2 C    0.967
     2   6 C    3.860 --     3 C    1.547     7 B    1.144     1 Br   0.967
                             5 C    0.122
     3   6 C    3.985 --     2 C    1.547     4 C    1.324    16 H    0.967
     4   6 C    3.980 --     5 C    1.538     3 C    1.324    17 H    0.967
     5   6 C    3.969 --     4 C    1.538     6 N    1.242    18 H    0.960
                             2 C    0.122
     6   7 N    3.654 --     5 C    1.242    15 C    1.141     7 B    1.059
     7   5 B    3.566 --     8 C    1.151     2 C    1.144     6 N    1.059
     8   6 C    3.968 --     9 C    1.650     7 B    1.151    19 H    0.971
     9   6 C    3.990 --     8 C    1.650    10 C    1.224    20 H    0.967
    10   6 C    3.989 --    11 C    1.330    15 C    1.257     9 C    1.224
    11   6 C    3.985 --    12 C    1.486    10 C    1.330    21 H    0.968
                            14 C    0.114
    12   6 C    3.981 --    11 C    1.486    13 C    1.392    22 H    0.970
    13   6 C    3.986 --    14 C    1.477    12 C    1.392    23 H    0.970
    14   6 C    3.988 --    13 C    1.477    15 C    1.344    24 H    0.965
                            11 C    0.114
    15   6 C    3.964 --    14 C    1.344    10 C    1.257     6 N    1.141
    16   1 H    0.998 --     3 C    0.967
    17   1 H    0.996 --     4 C    0.967
    18   1 H    0.995 --     5 C    0.960
    19   1 H    0.998 --     8 C    0.971
    20   1 H    0.998 --     9 C    0.967
    21   1 H    0.997 --    11 C    0.968
    22   1 H    0.997 --    12 C    0.970
    23   1 H    0.997 --    13 C    0.970
    24   1 H    0.997 --    14 C    0.965
 ---------------------------------------------------------------------------

Topologies differ in total number of bonds
Writing topology from bond orders to xtbtopo.mol

molecular dipole:
                 x           y           z       tot (Debye)
 q only:        2.039      -0.486       0.002
   full:        2.518      -0.432       0.002       6.493
molecular quadrupole (traceless):
                xx          xy          yy          xz          yz          zz
 q only:       26.446      -8.137      -8.122       0.281      -0.066     -18.324
  q+dip:       32.100      -6.678      -4.914       0.351      -0.059     -27.186
   full:       30.276      -6.886      -8.505       0.343      -0.058     -21.771


           -------------------------------------------------
          | TOTAL ENERGY              -38.538181593534 Eh   |
          | GRADIENT NORM               0.105869554633 Eh/α |
          | HOMO-LUMO GAP               2.766382290739 eV   |
           -------------------------------------------------
########################################################################
[WARNING] Runtime exception occurred
-2- restart_readRestart: Dimension missmatch in restart file.
-1- restart_readRestart: Number of electron missmatch in restart file.
########################################################################

------------------------------------------------------------------------
 * finished run on 2024/08/24 at 16:08:09.113     
------------------------------------------------------------------------
 total:
 * wall-time:     0 d,  0 h,  0 min,  0.038 sec
 *  cpu-time:     0 d,  0 h,  0 min,  0.562 sec
 * ratio c/w:    14.953 speedup
 SCF:
 * wall-time:     0 d,  0 h,  0 min,  0.029 sec
 *  cpu-time:     0 d,  0 h,  0 min,  0.461 sec
 * ratio c/w:    15.964 speedup

