60
 energy: -12.628071345248 gnorm: 0.000595478510 xtb: 6.5.0 (97a52f5)
C            2.53672212707542       -0.61400821737243        0.06875186083492
N            3.91525823145465       -0.27593240978700       -0.28794138473475
C            4.96855911110965       -0.78045629361743        0.59380498496649
C            4.21012733312264        0.52386527450473       -1.40312951060974
C            5.52917997091004        0.87723864627359       -1.71464557826529
C            5.81547745717726        1.66342566270934       -2.80074351516282
C            4.79792595964792        2.14760280715606       -3.63160615183805
C            5.10813595939094        2.98316277856822       -4.78808362861072
C            4.32659902474412        4.00414175694084       -5.26881520008899
C            3.11992956748062        4.59292504317477       -4.76360890012368
C            2.63424943068425        5.62513574317490       -5.50282376249165
C            1.43637736289179        6.39461813062678       -5.20424987328108
C            0.68110134969720        6.17240044253027       -4.04930355485694
C           -0.44595910446221        6.91605950637019       -3.78946502996467
C           -0.86541844250320        7.90869525507235       -4.66999395189348
C           -2.01340540413467        8.66779704741755       -4.39879203943831
N           -2.96361290921630        9.29624786945157       -4.17157070969989
C           -0.11953768309108        8.13373020878593       -5.82260599261463
C            1.00800053313817        7.39217317387385       -6.08231589262112
S            3.64077745563330        5.96376634051377       -6.92260050892793
C            4.85553763373877        4.69604811355592       -6.51950188054800
C            6.26211326532607        5.18024275730390       -6.14630533448014
C            6.75545346887224        6.46716381433251       -6.23561085849457
C            8.05699762123500        6.72365470814282       -5.85253122896096
C            8.86247365541067        5.70252597385591       -5.38233293219583
C            8.37662316090317        4.41308344124019       -5.28889653610622
C            7.07482301594894        4.14899693313439       -5.66985599827671
C            6.36679492167576        2.79518624883350       -5.64429577031211
C            5.87329427385314        2.55058813473514       -7.07001137899457
C            6.15403874581604        1.45972731623373       -7.87050743653704
C            5.61988055303960        1.39588519127947       -9.14252154900846
C            4.80990568524098        2.41221818355117       -9.61539863430412
C            4.52483994248428        3.50514337842033       -8.82124655525484
C            5.05596533696994        3.57697789401635       -7.54834430946278
C            3.48053252014546        1.78392255770124       -3.32779010541924
C            3.19445025087964        0.99475307711488       -2.24436773971621
H            2.49834320732625       -1.19279180842799        0.98916204265780
H            2.08064438368016       -1.20401450325470       -0.72394133177876
H            1.95525662192754        0.29403572197430        0.21653992331397
H            4.55615887926767       -1.41272140048768        1.37726921511848
H            5.48971363466483        0.05070168390639        1.06505890036012
H            5.68183655909648       -1.37217385035618        0.02331364587080
H            6.32958136846589        0.52973919327012       -1.08643991087175
H            6.83437535925259        1.93806503410901       -3.01128203186756
H            2.66264092843633        4.25903681835749       -3.85069621638008
H            0.98704523225557        5.41346784168487       -3.35179869985840
H           -1.01908992521778        6.73836409647398       -2.89546797913530
H           -0.43812304018528        8.89889637194305       -6.50974403805603
H            1.57805132716493        7.57408940010746       -6.97613186342326
H            6.11950148458941        7.25331771835854       -6.60211452132399
H            8.44672708716094        7.72605253948564       -5.92134246092145
H            9.87717444333843        5.91431600452774       -5.08754634745927
H            8.99792627287038        3.61314170783825       -4.92545177637974
H            7.01336455047765        1.98551829469236       -5.28424375082400
H            6.78446424618474        0.67213283841427       -7.49597450970643
H            5.83550298057152        0.54736871798954       -9.77092615465283
H            4.39778036761065        2.35138276199312      -10.60930646624738
H            3.89375319038740        4.30029227153957       -9.17652355907167
H            2.68815865926336        2.10038986881459       -3.98289919470370
H            2.17392079911209        0.72492618722737       -2.03993632717440
