34
 energy: -7.875716257341 gnorm: 0.000781002724 xtb: 6.5.0 (97a52f5)
C            0.59936905637953        2.79911573929870       -0.42732560271728
N            0.50811840796391        1.40690729571496        0.00029268005326
C            1.56544912240258        0.47792236022233       -0.06853121279298
C            2.90266283109338        0.70625361684030       -0.18005493362983
C            3.61023873461438        1.94163607096117        0.02598228099343
C            4.89651019942456        2.33351941100301       -0.37296917350677
S            6.10671914681662        1.65348190579539       -1.29593253123953
C            4.77422114266435        3.60420599055531        0.34222138376555
O            5.46033046221595        4.59517656030090        0.51887918367902
C            3.42486235999416        3.17276719857587        0.79405348212565
O            2.60174449852909        3.68732587263977        1.53411982696202
C            0.92959478051886       -0.92053402062963       -0.07244988895391
C            1.43906326391270       -1.75041366488590        1.11402509647949
C            1.20144224377605       -1.63750115946637       -1.40239821948358
C           -0.56182358302755       -0.62823654464257        0.07880608626262
C           -1.64426156764555       -1.48129886567608        0.15100931862708
C           -2.91686579225259       -0.94356922349086        0.25905229680257
C           -3.10393603735362        0.43190401553837        0.29212225927537
C           -2.02669421059555        1.29169585461825        0.21763328117069
C           -0.74751704128285        0.75673891117631        0.11070401674722
H            1.50560052101793        2.96293085887843       -1.00763039658237
H            0.61425735375364        3.45252979338313        0.44317392520896
H           -0.25320722493357        3.06300266412536       -1.05158802408720
H            3.52161133097843       -0.14192894064264       -0.41959592958498
H            2.51360567491932       -1.92015590480570        1.04127574656145
H            0.94514783689984       -2.72180635646351        1.15024421169344
H            1.24099772342388       -1.23609505433955        2.05484671483261
H            2.26704184980921       -1.82139545291197       -1.54081074873787
H            0.85062963663766       -1.03606639489306       -2.24159883507540
H            0.68684040230137       -2.59815929873739       -1.43787870196949
H           -1.49161577103188       -2.54667777858319        0.11844911816909
H           -3.77019649108100       -1.60061107930278        0.31611510403120
H           -4.10154712511061        0.83304816147659        0.37667105594860
H           -2.16199373571203        2.35895745826498        0.24790712897777
