90
 energy: -17.271233997620 gnorm: 0.000637803325 xtb: 6.5.0 (97a52f5)
C            1.65467987631414        1.96853753307909        1.81836662897664
C            2.74893435319658        1.82982246983029        1.09678707771028
C            3.47073496441838        0.54091136774642        0.96369595682200
N            4.74647533511171        0.66472123565269        0.22872824948214
C            4.80978380454368       -0.09158656425146       -1.04066860110256
C            4.58223386613329       -1.54818617425272       -0.86765626786676
C            4.33692793423802       -2.35925350961491       -1.87754490921664
C            5.76872223407454        1.53288772704159        0.67118950551068
C            6.78432374870609        1.97979173717114       -0.18209657790845
C            7.75721822423336        2.84158924371693        0.26206893547483
C            7.76736889748520        3.30329576402778        1.57966950737879
C            8.80752377741631        4.24283866861123        2.05074985188567
C            9.30416871165638        5.23497776220476        1.20913514351247
C           10.27978150501034        6.13333298610635        1.63342095058545
C           10.78795663417730        7.18427014662174        0.72575171262999
C            9.94114228757062        7.81758997459861       -0.18657532803473
C           10.41116286104041        8.79581207969314       -1.02754314061575
C           11.75245263380352        9.19011474698712       -0.99957777075872
N           12.23390822537612       10.19256578481745       -1.86264519370797
C           11.42262643250038       10.72405935593449       -2.97417203774794
C           10.42580038344943       11.72845184918789       -2.53162771995113
C            9.49152602325531       12.21060503961558       -3.32659934693057
C           13.57810886853438       10.78036292487120       -1.70931560363226
C           14.64742373853355        9.93345282307623       -2.29015149282034
C           15.92870377998449       10.22189173288410       -2.17939914323976
C           12.59872180406136        8.55414044514158       -0.08587816315173
C           12.12816944870170        7.57624360381924        0.75549089594213
C           10.75962228155338        6.02065433025705        2.93580632643704
C           10.28629442876118        5.04331576009626        3.80788547264826
C           10.80252839965481        4.94797609745384        5.19022882760440
C           11.14298032995909        6.09487420557252        5.91101928475006
C           11.61850390673327        6.00892731120070        7.19611745204649
C           11.77744857399310        4.77099041528121        7.82660888349007
N           12.26365489544351        4.68334525397711        9.14493301220062
C           12.84141054718080        5.84523377125091        9.84597927600813
C           11.81137421157196        6.74882783154094       10.41253909101373
C           12.10436726204084        7.89779404212096       10.98808771283838
C           12.20948268836908        3.42871423870349        9.91881303201131
C           13.33169858099545        2.51053861731402        9.60951530801553
C           13.42542619880921        1.29812473090998       10.11798782746473
C           11.43765178519649        3.62368372297282        7.10283045443671
C           10.96209857871128        3.71023658654603        5.81749786648903
C            9.31029011948229        4.16303840900837        3.34702568271045
C            6.75550661840273        2.86089861831194        2.43350706174683
C            5.78145662055523        2.00087432507169        1.99001510938655
H            1.14544977802960        2.90905367029353        1.90196362488358
H            1.23586701011650        1.13776700215237        2.35126618700919
H            3.15288250769523        2.67552943239223        0.56425990090735
H            2.83184632286945       -0.18131023139504        0.44656019691493
H            3.67456765613423        0.11072451418180        1.94845632151458
H            5.78133248485370        0.05644053747470       -1.51560094457252
H            4.06526268986191        0.32948007188914       -1.72301838723841
H            4.65325031400582       -1.94312327170302        0.13270132391448
H            4.28007551762693       -1.98770651890417       -2.88164719050425
H            4.18525318019549       -3.41210809975151       -1.73811531340580
H            6.78959381077334        1.67479524491596       -1.21244529983641
H            8.53354130639175        3.16456433592133       -0.40999807513515
H            8.92309416617838        5.31070112505402        0.20739885538500
H            8.90050760875873        7.54384542973613       -0.21166821237339
H            9.73453994056633        9.28445708819587       -1.70532656344023
H           10.92706396539390        9.88693046808318       -3.47457120299542
H           12.08917268723220       11.16349505465963       -3.72253048465910
H           10.49434606026595       12.07104290837121       -1.51197921581677
H            9.41195780788166       11.88534199908136       -4.34503979006911
H            8.78026685884253       12.94000596806689       -2.99013457991522
H           13.76315720502080       10.95547758129671       -0.64540039716260
H           13.58858820311894       11.76909573999296       -2.17827084665585
H           14.33776717812465        9.05116659472628       -2.82638369383358
H           16.25434810202839       11.09728085029418       -1.65295734950144
H           16.68960309788676        9.59808782727569       -2.60720238984917
H           13.63939960081818        8.82321654441391       -0.05916114664042
H           12.80149520659577        7.08656467961611        1.43762677131795
H           11.51272197748819        6.70676111763334        3.27707979075260
H           11.00867051484203        7.05963818987761        5.45315745821851
H           11.85282224554713        6.90754555073362        7.73802735188694
H           13.48576614260412        6.38866430186257        9.14854852343405
H           13.50185465250857        5.48597846057374       10.64112878988037
H           10.78479582237336        6.42755360092010       10.34397874749891
H           13.12025837963035        8.23081954212872       11.06817101598536
H           11.34686535377025        8.53952612146130       11.39487661555683
H           11.25018080201002        2.93965698063273        9.72543136029245
H           12.20854256838170        3.67141242369772       10.98590202470795
H           14.09560012101106        2.87568812632229        8.94250498280038
H           12.67651698850721        0.92125606356137       10.78621277875734
H           14.24614996701221        0.64714312766482        9.88622084044427
H           11.57343036355861        2.65819384777040        7.55625074533917
H           10.72343857954209        2.81307879639586        5.27287227422873
H            8.93453653173902        3.40425544082924        4.00844222826848
H            6.73341897791966        3.21873233465644        3.44840907268421
H            5.01093336331238        1.67959040499859        2.66774250039632
