66
 energy: -12.849910443336 gnorm: 0.000852835165 xtb: 6.5.0 (97a52f5)
C            0.75497379076093       -0.24451688432405       -0.31768898730052
O            1.99975774811787       -0.76867834866558       -0.71922900703527
C            2.77009728005851        0.08932514075533       -1.50475688304895
C            4.02003448300608       -0.36611238009709       -1.92019744700087
C            4.87331870174781        0.40692027584820       -2.70525418828970
O            6.10208282639610       -0.14846809431536       -3.06337652969528
C            6.92389547695483        0.68934193278097       -3.84390398056794
C            4.44192219790696        1.68195475965483       -3.08024885093016
C            3.19913534768543        2.17070978034199       -2.68615869534074
C            2.75980149096771        3.52270424825009       -3.10585121781721
C            2.84373920254106        4.63224821884573       -2.24286327260306
C            3.31684268499977        4.74977710713004       -0.89750902775259
C            3.84543089305888        3.65645786296905       -0.04516598941789
C            3.17620731115309        6.07411337345952       -0.52042798814601
I            3.68097104082669        6.87092734439858        1.33866190183082
C            2.63104034698690        6.79672209805023       -1.60919879017767
C            2.32703490734933        8.23874076961143       -1.68963130705087
N            2.45691382267034        5.91449633954870       -2.60076969864872
B            1.91619257094362        6.28300081059741       -3.98654827225202
F            0.63163640232946        6.79222979604847       -3.85783633047308
F            2.76688948736641        7.20421774903592       -4.58157567801933
N            1.87352745606693        5.00933447988407       -4.83803035524318
C            1.43601684630197        4.98883591780211       -6.12799626395079
C            0.99858998678388        6.11505539991421       -6.85460573937674
C            0.58183510795627        6.06475705052989       -8.14810704986734
C            0.15284139106973        7.18316599536093       -8.90026715687564
C            0.07401744504117        8.52106231526297       -8.48696041128222
N           -0.37585213234861        9.28624958633964       -9.50346537991224
C           -0.61058494403563        8.47813965643688      -10.62583540059040
C           -1.07153799374969        8.77502405427640      -11.90578846270138
C           -1.19926116523129        7.74878093435097      -12.81368975208871
C           -0.87599613179120        6.43555538506214      -12.46792951477346
C           -0.42046942410269        6.12628961416741      -11.20769554243847
C           -0.28696290407290        7.15601405057263      -10.27446214061822
C            1.53402523887580        3.62558411526238       -6.55428125189943
I            1.02959050196335        2.89762946705684       -8.44015034253666
C            2.01842330411113        2.87712266206715       -5.51141010061588
C            2.27151750946059        1.41517165880128       -5.54101131240155
C            2.25542251363117        3.76922230412978       -4.39791164747856
C            2.37397273932757        1.36939846286089       -1.90155773407750
H            0.24591277813823       -0.99090773811092        0.29365392681475
H            0.14269632513977       -0.02782452654034       -1.19414248520779
H            0.90566592705075        0.65722051308351        0.27726850572980
H            4.33690551461437       -1.34783074174103       -1.62487344227093
H            7.85405466083137        0.16087063574758       -4.05706742239516
H            7.15391067317496        1.60223572037942       -3.29272256306974
H            6.42725186601642        0.92516385816979       -4.78610545383567
H            5.06729743503171        2.31073807529853       -3.68425250612224
H            4.59829596636834        3.07617167467223       -0.57871117556292
H            3.04612136923722        2.98095044161547        0.25933095140613
H            4.31024125134916        4.05272695670470        0.85744882666201
H            2.43071400144756        8.72112944601711       -0.71759730600329
H            3.00029556143911        8.73134161167487       -2.39166266739054
H            1.30637614711367        8.39164630170946       -2.04161919774610
H            1.01153042645113        7.05864104431447       -6.34091121974751
H            0.58161291668364        5.09357616174882       -8.64807441793576
H            0.33441797556903        8.89485366555525       -7.51088510581127
H           -0.53584416711794       10.29278908435967       -9.50021060174016
H           -1.31836654432511        9.78904018225892      -12.16453100288038
H           -1.55416992778898        7.96163975750873      -13.80860017221122
H           -0.98512873085764        5.65265852513505      -13.20019175787499
H           -0.16871709375218        5.11711848193789      -10.93442028166565
H            1.75251694332788        0.94425404229180       -6.37565550719027
H            1.92133277288669        0.93957387785919       -4.62497136994245
H            3.33623413074894        1.20758326881539       -5.64760755265537
H            1.41676846213569        1.75639466947309       -1.60958320289432
