      -----------------------------------------------------------      
     |                   =====================                   |     
     |                           x T B                           |     
     |                   =====================                   |     
     |                         S. Grimme                         |     
     |          Mulliken Center for Theoretical Chemistry        |     
     |                    University of Bonn                     |     
      -----------------------------------------------------------      

   * xtb version 6.5.0 (97a52f5) compiled by 'conda@d2599ee0d4f4' on 2022-05-15

   xtb is free software: you can redistribute it and/or modify it under
   the terms of the GNU Lesser General Public License as published by
   the Free Software Foundation, either version 3 of the License, or
   (at your option) any later version.
   
   xtb is distributed in the hope that it will be useful,
   but WITHOUT ANY WARRANTY; without even the implied warranty of
   MERCHANTABILITY or FITNESS FOR A PARTICULAR PURPOSE.  See the
   GNU Lesser General Public License for more details.
   
   Cite this work as:
   * C. Bannwarth, E. Caldeweyher, S. Ehlert, A. Hansen, P. Pracht,
     J. Seibert, S. Spicher, S. Grimme, WIREs Comput. Mol. Sci., 2020, 11,
     e01493. DOI: 10.1002/wcms.1493
   
   for GFN2-xTB:
   * C. Bannwarth, S. Ehlert and S. Grimme., J. Chem. Theory Comput., 2019,
     15, 1652-1671. DOI: 10.1021/acs.jctc.8b01176
   for GFN1-xTB:
   * S. Grimme, C. Bannwarth, P. Shushkov, J. Chem. Theory Comput., 2017,
     13, 1989-2009. DOI: 10.1021/acs.jctc.7b00118
   for GFN0-xTB:
   * P. Pracht, E. Caldeweyher, S. Ehlert, S. Grimme, ChemRxiv, 2019, preprint.
     DOI: 10.26434/chemrxiv.8326202.v1
   for GFN-FF:
   * S. Spicher and S. Grimme, Angew. Chem. Int. Ed., 2020, 59, 15665-15673.
     DOI: 10.1002/anie.202004239
   
   for ALPB and GBSA implicit solvation:
   * S. Ehlert, M. Stahn, S. Spicher, S. Grimme, J. Chem. Theory Comput.,
     2021, 17, 4250-4261. DOI: 10.1021/acs.jctc.1c00471
   
   for DFT-D4:
   * E. Caldeweyher, C. Bannwarth and S. Grimme, J. Chem. Phys., 2017,
     147, 034112. DOI: 10.1063/1.4993215
   * E. Caldeweyher, S. Ehlert, A. Hansen, H. Neugebauer, S. Spicher,
     C. Bannwarth and S. Grimme, J. Chem. Phys., 2019, 150, 154122.
     DOI: 10.1063/1.5090222
   * E. Caldeweyher, J.-M. Mewes, S. Ehlert and S. Grimme, Phys. Chem. Chem. Phys.
     2020, 22, 8499-8512. DOI: 10.1039/D0CP00502A
   
   for sTDA-xTB:
   * S. Grimme and C. Bannwarth, J. Chem. Phys., 2016, 145, 054103.
     DOI: 10.1063/1.4959605
   
   in the mass-spec context:
   * V. Asgeirsson, C. Bauer and S. Grimme, Chem. Sci., 2017, 8, 4879.
     DOI: 10.1039/c7sc00601b
   * J. Koopman and S. Grimme, ACS Omega 2019, 4, 12, 15120-15133.
     DOI: 10.1021/acsomega.9b02011
   
   for metadynamics refer to:
   * S. Grimme, J. Chem. Theory Comput., 2019, 155, 2847-2862
     DOI: 10.1021/acs.jctc.9b00143
   
   for SPH calculations refer to:
   * S. Spicher and S. Grimme, J. Chem. Theory Comput., 2021, 17, 1701-1714
     DOI: 10.1021/acs.jctc.0c01306
   
   with help from (in alphabetical order)
   P. Atkinson, C. Bannwarth, F. Bohle, G. Brandenburg, E. Caldeweyher
   M. Checinski, S. Dohm, S. Ehlert, S. Ehrlich, I. Gerasimov, C. Hölzer
   A. Katbashev, J. Koopman, C. Lavigne, S. Lehtola, F. März, M. Müller,
   F. Musil, H. Neugebauer, J. Pisarek, C. Plett, P. Pracht, F. Pultar,
   J. Seibert, P. Shushkov, S. Spicher, M. Stahn, M. Steiner, T. Strunk,
   J. Stückrath, T. Rose, and J. Unsleber
   
 * started run on 2024/08/24 at 16:08:09.157     

           -------------------------------------------------
          |                Calculation Setup                |
           -------------------------------------------------

          program call               : xtb 3.xyz --chrg 1 --gbsa water
          coordinate file            : 3.xyz
          omp threads                :                    16

   ID    Z sym.   atoms
    1   35 Br     1, 9
    2    6 C      2, 3, 5, 7, 8, 10-16, 18-24
    3    7 N      4, 6, 17
    4    1 H      25-36

           -------------------------------------------------
          |                 G F N 2 - x T B                 |
           -------------------------------------------------

        Reference                      10.1021/acs.jctc.8b01176
      * Hamiltonian:
        H0-scaling (s, p, d)           1.850000    2.230000    2.230000
        zeta-weighting                 0.500000
      * Dispersion:
        s8                             2.700000
        a1                             0.520000
        a2                             5.000000
        s9                             5.000000
      * Repulsion:
        kExp                           1.500000    1.000000
        rExp                           1.000000
      * Coulomb:
        alpha                          2.000000
        third order                    shell-resolved
        anisotropic                    true
        a3                             3.000000
        a5                             4.000000
        cn-shift                       1.200000
        cn-exp                         4.000000
        max-rad                        5.000000

      * Solvation model:               GBSA
        Solvent                        water
        Parameter file                 internal GFN2-xTB/GBSA
        Dielectric constant                8.0200E+01
        Reference state                gsolv [1 M gas/solution]
        Free energy shift                  1.8574E-03 Eh       1.1656E+00 kcal/mol
        Temperature                        2.9815E+02 K
        Density                            1.0000E+00 kg/L
        Solvent mass                       1.8000E+01 g/mol
        Interaction kernel             Still
        Born radius scaling (c1)           1.5524E+00
        Born radii integrator          GBOBC
        Born offset                        2.4628E-02 a0       4.6540E-02 AA
        H-bond correction              true
        Ion screening                  false
        Surface tension                    1.0000E-05 Eh       1.5569E+01 dyn/cm
        Grid points                               230 per atom

          ...................................................
          :                      SETUP                      :
          :.................................................:
          :  # basis functions                 120          :
          :  # atomic orbitals                 118          :
          :  # shells                           62          :
          :  # electrons                       116          :
          :  max. iterations                   250          :
          :  Hamiltonian                  GFN2-xTB          :
          :  restarted?                      false          :
          :  GBSA solvation                   true          :
          :  PC potential                    false          :
          :  electronic temp.          300.0000000     K    :
          :  accuracy                    1.0000000          :
          :  -> integral cutoff          0.2500000E+02      :
          :  -> integral neglect         0.1000000E-07      :
          :  -> SCF convergence          0.1000000E-05 Eh   :
          :  -> wf. convergence          0.1000000E-03 e    :
          :  Broyden damping             0.4000000          :
          ...................................................

 iter      E             dE          RMSdq      gap      omega  full diag
   1    -64.2145636 -0.642146E+02  0.534E+00    1.69       0.0  T
   2    -64.3441804 -0.129617E+00  0.350E+00    1.91       1.0  T
   3    -64.3429290  0.125140E-02  0.147E+00    1.68       1.0  T
   4    -64.3583997 -0.154707E-01  0.494E-01    1.82       1.0  T
   5    -64.3639452 -0.554553E-02  0.194E-01    1.76       1.0  T
   6    -64.3640323 -0.870486E-04  0.988E-02    1.77       1.0  T
   7    -64.3641021 -0.697860E-04  0.448E-02    1.78       1.0  T
   8    -64.3641285 -0.264724E-04  0.261E-02    1.77       1.0  T
   9    -64.3641300 -0.142855E-05  0.206E-02    1.77       1.0  T
  10    -64.3641325 -0.257390E-05  0.957E-03    1.77       1.7  T
  11    -64.3641334 -0.880154E-06  0.541E-03    1.77       3.1  T
  12    -64.3641335 -0.144016E-06  0.308E-03    1.77       5.4  T
  13    -64.3641336 -0.955491E-07  0.127E-03    1.77      13.1  T
  14    -64.3641337 -0.120068E-07  0.862E-04    1.77      19.3  T
  15    -64.3641337 -0.432934E-08  0.554E-04    1.77      30.1  T

   *** convergence criteria satisfied after 15 iterations ***

         #    Occupation            Energy/Eh            Energy/eV
      -------------------------------------------------------------
         1        2.0000           -0.8614385             -23.4409
       ...           ...                  ...                  ...
        52        2.0000           -0.4365339             -11.8787
        53        2.0000           -0.4337289             -11.8024
        54        2.0000           -0.4314526             -11.7404
        55        2.0000           -0.4301240             -11.7043
        56        2.0000           -0.4218583             -11.4793
        57        2.0000           -0.4181841             -11.3794
        58        2.0000           -0.3981141             -10.8332 (HOMO)
        59                         -0.3329685              -9.0605 (LUMO)
        60                         -0.2994978              -8.1498
        61                         -0.2825500              -7.6886
        62                         -0.2785116              -7.5787
        63                         -0.2421845              -6.5902
       ...                                ...                  ...
       118                          0.6337149              17.2443
      -------------------------------------------------------------
                  HL-Gap            0.0651456 Eh            1.7727 eV
             Fermi-level           -0.3655413 Eh           -9.9469 eV

 SCC (total)                   0 d,  0 h,  0 min,  0.084 sec
 SCC setup                      ...        0 min,  0.000 sec (  0.361%)
 Dispersion                     ...        0 min,  0.001 sec (  0.638%)
 classical contributions        ...        0 min,  0.000 sec (  0.115%)
 integral evaluation            ...        0 min,  0.002 sec (  2.110%)
 iterations                     ...        0 min,  0.078 sec ( 92.161%)
 molecular gradient             ...        0 min,  0.003 sec (  3.889%)
 printout                       ...        0 min,  0.001 sec (  0.699%)

         :::::::::::::::::::::::::::::::::::::::::::::::::::::
         ::                     SUMMARY                     ::
         :::::::::::::::::::::::::::::::::::::::::::::::::::::
         :: total energy             -63.441930344727 Eh    ::
         :: total w/o Gsasa/hb       -63.433552198912 Eh    ::
         :: gradient norm              0.126013917300 Eh/a0 ::
         :: HOMO-LUMO gap              1.772702204773 eV    ::
         ::.................................................::
         :: SCC energy               -64.364133661618 Eh    ::
         :: -> isotropic ES            0.098287736398 Eh    ::
         :: -> anisotropic ES         -0.010565796407 Eh    ::
         :: -> anisotropic XC          0.037497228235 Eh    ::
         :: -> dispersion             -0.047863999395 Eh    ::
         :: -> Gsolv                  -0.071567703602 Eh    ::
         ::    -> Gelec               -0.063189557788 Eh    ::
         ::    -> Gsasa               -0.007695231816 Eh    ::
         ::    -> Ghb                 -0.002540357126 Eh    ::
         ::    -> Gshift               0.001857443127 Eh    ::
         :: repulsion energy           0.922485737658 Eh    ::
         :: add. restraining           0.000000000000 Eh    ::
         :: total charge               1.000000000000 e     ::
         :::::::::::::::::::::::::::::::::::::::::::::::::::::

           -------------------------------------------------
          |                Property Printout                |
           -------------------------------------------------

    * Orbital Energies and Occupations

         #    Occupation            Energy/Eh            Energy/eV
      -------------------------------------------------------------
         1        2.0000           -0.8614385             -23.4409
       ...           ...                  ...                  ...
        46        2.0000           -0.4599904             -12.5170
        47        2.0000           -0.4544110             -12.3652
        48        2.0000           -0.4520063             -12.2997
        49        2.0000           -0.4512647             -12.2795
        50        2.0000           -0.4450002             -12.1091
        51        2.0000           -0.4392175             -11.9517
        52        2.0000           -0.4365339             -11.8787
        53        2.0000           -0.4337289             -11.8024
        54        2.0000           -0.4314526             -11.7404
        55        2.0000           -0.4301240             -11.7043
        56        2.0000           -0.4218583             -11.4793
        57        2.0000           -0.4181841             -11.3794
        58        2.0000           -0.3981141             -10.8332 (HOMO)
        59                         -0.3329685              -9.0605 (LUMO)
        60                         -0.2994978              -8.1498
        61                         -0.2825500              -7.6886
        62                         -0.2785116              -7.5787
        63                         -0.2421845              -6.5902
        64                         -0.2298715              -6.2551
        65                         -0.2270342              -6.1779
        66                         -0.2182985              -5.9402
        67                         -0.2096710              -5.7054
        68                         -0.1910687              -5.1992
        69                         -0.1140361              -3.1031
       ...                                ...                  ...
       118                          0.6337149              17.2443
      -------------------------------------------------------------
                  HL-Gap            0.0651456 Eh            1.7727 eV
             Fermi-level           -0.3655413 Eh           -9.9469 eV

     #   Z          covCN         q      C6AA      α(0)
     1  35 Br       1.069    -0.148   189.129    22.174
     2   6 C        2.888     0.080    26.222     8.395
     3   6 C        2.963     0.002    27.970     8.675
     4   7 N        2.738    -0.014    21.520     6.890
     5   6 C        3.706     0.037    20.093     6.408
     6   7 N        2.745     0.031    20.699     6.757
     7   6 C        2.975     0.001    28.000     8.680
     8   6 C        2.904     0.088    26.031     8.366
     9  35 Br       1.064    -0.138   188.856    22.158
    10   6 C        3.022     0.030    27.308     8.572
    11   6 C        2.916    -0.024    28.600     8.770
    12   6 C        2.909    -0.010    28.268     8.718
    13   6 C        2.909    -0.015    28.394     8.738
    14   6 C        2.917    -0.017    28.427     8.743
    15   6 C        2.981     0.016    27.658     8.627
    16   6 C        2.889     0.148    24.780     8.161
    17   7 N        1.836    -0.265    27.730     7.804
    18   6 C        2.867     0.158    24.578     8.127
    19   6 C        2.975     0.005    27.906     8.665
    20   6 C        2.911    -0.019    28.482     8.751
    21   6 C        2.911    -0.020    28.513     8.756
    22   6 C        2.909    -0.017    28.444     8.745
    23   6 C        2.915    -0.026    28.642     8.776
    24   6 C        3.007     0.019    27.574     8.614
    25   1 H        0.925     0.104     1.749     2.068
    26   1 H        0.924     0.118     1.630     1.996
    27   1 H        0.924     0.123     1.593     1.974
    28   1 H        0.925     0.123     1.591     1.973
    29   1 H        0.925     0.078     1.998     2.210
    30   1 H        0.924     0.076     2.017     2.221
    31   1 H        0.925     0.083     1.952     2.185
    32   1 H        0.925     0.099     1.792     2.094
    33   1 H        0.925     0.092     1.856     2.130
    34   1 H        0.925     0.071     2.077     2.254
    35   1 H        0.925     0.064     2.148     2.292
    36   1 H        0.925     0.066     2.127     2.281

 Mol. C6AA /au·bohr⁶  :      24706.607031
 Mol. C8AA /au·bohr⁸  :     765711.484451
 Mol. α(0) /au        :        252.745900


Wiberg/Mayer (AO) data.
largest (>0.10) Wiberg bond orders for each atom

 ---------------------------------------------------------------------------
     #   Z sym  total        # sym  WBO       # sym  WBO       # sym  WBO
 ---------------------------------------------------------------------------
     1  35 Br   1.169 --     2 C    1.018
     2   6 C    3.921 --     3 C    1.628    24 C    1.113     1 Br   1.018
     3   6 C    3.951 --     2 C    1.628     4 N    1.151    25 H    0.953
     4   7 N    3.605 --    18 C    1.184     3 C    1.151     5 C    0.991
     5   6 C    3.930 --     4 N    0.991     6 N    0.965    27 H    0.951
                            26 H    0.945
     6   7 N    3.678 --    16 C    1.252     7 C    1.226     5 C    0.965
     7   6 C    3.947 --     8 C    1.513     6 N    1.226    28 H    0.950
     8   6 C    3.927 --     7 C    1.513    10 C    1.226     9 Br   1.016
     9  35 Br   1.171 --     8 C    1.016
    10   6 C    3.983 --    11 C    1.321    15 C    1.228     8 C    1.226
    11   6 C    3.983 --    12 C    1.490    10 C    1.321    29 H    0.961
                            14 C    0.116
    12   6 C    3.974 --    11 C    1.490    13 C    1.375    30 H    0.965
    13   6 C    3.975 --    14 C    1.497    12 C    1.375    31 H    0.964
    14   6 C    3.973 --    13 C    1.497    15 C    1.310    32 H    0.960
                            11 C    0.116
    15   6 C    3.981 --    14 C    1.310    10 C    1.228    16 C    1.215
    16   6 C    3.953 --     6 N    1.252    17 N    1.228    15 C    1.215
    17   7 N    3.048 --    18 C    1.468    16 C    1.228
    18   6 C    3.950 --    17 N    1.468     4 N    1.184    19 C    1.092
    19   6 C    3.976 --    20 C    1.363    24 C    1.290    18 C    1.092
    20   6 C    3.977 --    21 C    1.468    19 C    1.363    33 H    0.960
                            23 C    0.111
    21   6 C    3.979 --    20 C    1.468    22 C    1.404    34 H    0.966
    22   6 C    3.977 --    23 C    1.461    21 C    1.404    35 H    0.968
    23   6 C    3.986 --    22 C    1.461    24 C    1.370    36 H    0.962
                            20 C    0.111
    24   6 C    3.981 --    23 C    1.370    19 C    1.290     2 C    1.113
    25   1 H    0.989 --     3 C    0.953
    26   1 H    0.983 --     5 C    0.945
    27   1 H    0.983 --     5 C    0.951
    28   1 H    0.984 --     7 C    0.950
    29   1 H    0.993 --    11 C    0.961
    30   1 H    0.993 --    12 C    0.965
    31   1 H    0.992 --    13 C    0.964
    32   1 H    0.989 --    14 C    0.960
    33   1 H    0.990 --    20 C    0.960
    34   1 H    0.994 --    21 C    0.966
    35   1 H    0.995 --    22 C    0.968
    36   1 H    0.995 --    23 C    0.962
 ---------------------------------------------------------------------------

Topologies differ in total number of bonds
Writing topology from bond orders to xtbtopo.mol

molecular dipole:
                 x           y           z       tot (Debye)
 q only:       13.868      -0.952      -1.022
   full:       13.701      -0.936      -1.360      35.077
molecular quadrupole (traceless):
                xx          xy          yy          xz          yz          zz
 q only:      202.230     -22.583    -118.035     -19.124      -2.698     -84.195
  q+dip:      199.318     -21.555    -120.738     -26.010      -3.291     -78.580
   full:      196.478     -22.304    -114.223     -26.965      -2.291     -82.256


           -------------------------------------------------
          | TOTAL ENERGY              -63.441930344727 Eh   |
          | GRADIENT NORM               0.126013917300 Eh/α |
          | HOMO-LUMO GAP               1.772702204773 eV   |
           -------------------------------------------------
########################################################################
[WARNING] Runtime exception occurred
-2- restart_readRestart: Dimension missmatch in restart file.
-1- restart_readRestart: Number of electron missmatch in restart file.
########################################################################

------------------------------------------------------------------------
 * finished run on 2024/08/24 at 16:08:09.253     
------------------------------------------------------------------------
 total:
 * wall-time:     0 d,  0 h,  0 min,  0.096 sec
 *  cpu-time:     0 d,  0 h,  0 min,  1.470 sec
 * ratio c/w:    15.381 speedup
 SCF:
 * wall-time:     0 d,  0 h,  0 min,  0.084 sec
 *  cpu-time:     0 d,  0 h,  0 min,  1.349 sec
 * ratio c/w:    15.978 speedup

