43
 energy: -9.012613694947 gnorm: 0.000759200956 xtb: 6.5.0 (97a52f5)
C            1.89449681376416        0.91855649505947        0.18769512684405
O            2.09044937918456       -0.43486532870034       -0.15714020383219
C            2.85907501579647       -0.64223268587545       -1.30900270187566
C            3.07199645857553       -1.96293311369369       -1.71790604316768
C            3.81450884624215       -2.25277671846337       -2.83510830239396
C            4.38195942140897       -1.23265339556835       -3.59656496368184
C            5.18169722302347       -1.51396330627747       -4.78417366977952
N            5.75748295605208       -0.57435014312233       -5.52694259294639
C            6.40741764473583       -1.21277945282808       -6.52238156126007
C            7.12797615469868       -0.50736605370626       -7.59360720616918
C            7.14009067298104       -0.98239792316321       -8.90438531803020
C            7.80518293681117       -0.29501649267764       -9.89500861756627
C            8.46320193055620        0.88229310730159       -9.59902714008506
C            8.44937195691307        1.37432598759192       -8.30898505175750
C            7.78442848109873        0.68911560541670       -7.31645251708516
C            6.23863863513023       -2.61002705788433       -6.38052678461850
C            6.82697749155006       -3.70082004566797       -7.16353674067961
C            6.10649587434518       -4.87346786582594       -7.38429733609333
C            6.65583753775055       -5.91198037550730       -8.10296880255470
C            7.93642641064477       -5.80400532374618       -8.60828824600937
C            8.66911407602271       -4.65420913684237       -8.39016566572342
C            8.12327748705997       -3.61407998277906       -7.67202819712076
N            5.44681145747488       -2.77658842147276       -5.28155790136018
C            4.17263535970504        0.08461381779442       -3.19417593206407
C            3.42929486056248        0.37761039534164       -2.07797736493102
H            1.28145139010969        0.96474712851543        1.08870023943967
H            1.37386002626608        1.43651563514895       -0.61888478940008
H            2.85421694914491        1.39563481695016        0.39052381972320
H            2.63700631425495       -2.75184909882145       -1.13026440225651
H            3.96462832382426       -3.27577235348646       -3.12900847978096
H            6.61447229945362       -1.89217367962444       -9.13636165324737
H            7.81034542094323       -0.67573927842925      -10.90323263590790
H            8.98331183646733        1.41913194815614      -10.37542725395129
H            8.95776601073282        2.29624245310949       -8.07856670320208
H            7.76523053693619        1.06963537032284       -6.31007468676035
H            5.10758516272675       -4.95383218514488       -6.99244213005261
H            6.08538853296788       -6.81086198885049       -8.27046904324387
H            8.36501840556195       -6.61760947703199       -9.17027114894565
H            9.66990832014813       -4.57109056067483       -8.78127769124887
H            8.69769345353012       -2.72272051806654       -7.48921868673519
H            5.16895281884484       -3.66914576329595       -4.87495973991641
H            4.60819894382040        0.87521145834512       -3.77989148601890
H            3.28635017217513        1.40347350818090       -1.79230979455511
