45
 energy: -7.048597740592 gnorm: 0.000691845035 xtb: 6.5.0 (97a52f5)
C            0.96630447176206       -0.39984452085102        0.31888190273281
Si           2.80383281217161       -0.35993564432332       -0.01644953483992
C            3.65765208573675       -0.62261309615694        1.62426061311429
C            3.19080045666411       -1.85660021633714       -1.06619895837978
Si           3.48180214087091        1.62882147335645       -1.02453644611624
C            2.48514925870018        2.02631372954883       -2.55419512373873
C            3.30900246536144        3.07726006625380        0.14364118123374
C            5.26086768907830        1.56048222855823       -1.53984339553586
C            5.94557596780091        0.38917698899953       -1.43245536823392
C            7.31183509101587        0.21125994274720       -1.70885676644719
C            8.30422102778078        1.10633634130561       -1.37627541709075
C            8.24891782036424        2.02964219514622       -0.28147258889519
C            8.83877241279982        3.26629736654090       -0.22726154028187
C            9.21641695867512        4.01042032375327       -1.34031944867698
C            9.81745674619164        5.24310491644342       -1.41391445292986
C            9.40049464554998        6.29585832026806       -2.18048758557286
C            8.24481764165249        6.59710739762871       -2.83290516249616
C            7.10549569084541        5.96947333135211       -2.93717616754943
C            6.84386410483005        4.70944805825045       -2.54220020328005
C            5.74525433895455        3.98139653171979       -2.36128401233356
C            5.91316092219569        2.65583222886964       -2.00150994794094
H            0.69503661467597       -1.32664054789073        0.81711560635787
H            0.41624525503026       -0.33024526676852       -0.61603512458217
H            0.68466880084048        0.43604698913693        0.95411903128030
H            3.35329721554317       -1.57024727093922        2.06007850812285
H            3.39896721993369        0.17921065920620        2.31083244519563
H            4.73544230388532       -0.63004525063669        1.48501446849079
H            2.82699583191769       -2.75981552150540       -0.58406519358279
H            4.26463359850514       -1.94393442877420       -1.20802614278513
H            2.71561956042669       -1.76182188654513       -2.03905619259879
H            1.42905367488178        2.08577585251357       -2.30549966222672
H            2.62687463831952        1.24724420204449       -3.29829398272692
H            2.79877054936908        2.97596863205653       -2.97796333458083
H            2.28161381548380        3.15522290465909        0.48881067787304
H            3.58274843694698        4.00385444596616       -0.35269628094257
H            3.95835593289631        2.93628568521216        1.00344745354516
H            7.56800407871679       -0.61427371578821       -2.35776269624350
H            9.22923047297740        1.07524969949332       -1.93486060859735
H            7.69803467373624        1.69924933520878        0.58838629575576
H            8.85291166121219        3.78432883962226        0.71852186944334
H           10.64040269200375        5.43687853600400       -0.74103245910169
H            8.29799480058017       12.59037571386138       -2.36064318551664
H            2.85207346446702       11.04824342467409       -2.19326753282885
H           -0.11514406157560        8.04002122381370       -1.69346846882789
H            4.76587401787430        4.40550978817254       -2.48975706910126
