31
 energy: -5.962126518315 gnorm: 0.000557506213 xtb: 6.5.0 (97a52f5)
C            1.07392080445493       -0.16964056448898        0.20751554670507
Si           2.93711201959407       -0.05277350889041        0.04305414562012
C            3.73906693926160        0.13244009735856        1.72741689446273
C            3.53345002968496       -1.67773629758952       -0.67640482103021
C            3.40539808041185        1.37521119349604       -1.06557812125089
C            4.07822921519624        1.07979599861442       -2.21313553047833
C            4.47882813532906        2.08336831916459       -3.09938024386197
C            4.20771136754097        3.40304527360797       -2.84488319241127
C            4.62426013007930        4.38660874182037       -3.75346002683523
N            4.96866815572688        5.20433449070409       -4.50315361490034
C            3.50246911184060        3.74764623611189       -1.65214637745184
C            3.19483277236808        5.09024993553469       -1.34115709219679
C            2.52011620949186        5.41086376692815       -0.20351337896166
C            2.11773112853963        4.40580934983500        0.68154898410171
C            2.39772521940377        3.10023200875595        0.41407163342401
C            3.09745530207332        2.72463780441023       -0.75675974906550
H            0.81335301391436       -1.02702551400203        0.82115907056684
H            0.63041960181393       -0.29753975529481       -0.77564989826011
H            0.65481116474865        0.72181869745961        0.66319316738822
H            3.54155119010076       -0.75178350230788        2.32649234075003
H            3.35928080237399        0.99977558930207        2.25786329487908
H            4.81350783323224        0.24034943606480        1.61060668316746
H            3.25759294296396       -2.49634553102461       -0.01810975173444
H            4.61427822841544       -1.66910705867716       -0.78312929883678
H            3.08188177401732       -1.84981989622279       -1.64909061925051
H            4.30777055283769        0.05380110115374       -2.44364431513244
H            5.01025920030243        1.82425372351087       -3.99920937018897
H            3.50391612020361        5.86261775879491       -2.02278712752144
H            2.29320951569296        6.44084049866249        0.01811595600463
H            1.58314112346079        4.66967326491924        1.57933572971224
H            2.08176231492670        2.33762834228177        1.10107908257856
