63
 energy: -14.241924704749 gnorm: 0.000227248471 xtb: 6.5.0 (97a52f5)
C            1.35381046388803       -0.48504182595149       -2.19168422411746
C            2.67374030923360       -0.36447555000767       -1.50890194754771
C            3.23280068166902        0.88339334466446       -1.28184369690581
C            2.50624604828133        2.12796985044558       -1.67294269439600
O            2.98262955029733        2.87476001302365       -2.50732622902194
C            1.21321345627455        2.42149527038316       -1.00647624550905
C            1.00126088201150        1.97923067048212        0.29739555095295
C           -0.18444036324933        2.20286260419432        0.95347565979204
C           -1.23066478086582        2.88219363315956        0.32663855005923
C           -2.47954981674309        3.12321047951597        0.97845535587875
C           -3.48419289223259        3.77425408649559        0.35108213944375
C           -3.33603416818003        4.24542187346141       -0.99086996239818
C           -4.36080320916882        4.91263140508554       -1.66392749939045
C           -4.18619793118555        5.35077351015462       -2.96026005885327
C           -2.99397043843439        5.13915658736654       -3.62055808600833
C           -1.93805203342646        4.47735990242412       -2.99193081175038
C           -0.68883862720128        4.24049589505723       -3.64307008877316
C            0.31565091035639        3.59643594121486       -3.00996062244892
C            0.18251398212637        3.11994833471473       -1.67070547810618
C           -1.04561049616660        3.34194952268261       -0.99891835714103
C           -2.10836403498890        4.02458546661528       -1.66166684408075
C            4.51709234326309        1.00270568732854       -0.67814640338129
C            5.11496925846338        2.27421602620444       -0.46537653291011
C            6.33076820752442        2.39589866940762        0.11343763219675
C            7.06213678885600        1.24674103628527        0.52823785436722
C            8.32524193281518        1.35767607762920        1.12186144827790
C            9.01341797759559        0.23659014625572        1.50632259146200
C            8.47068990966713       -1.02314855262355        1.31505070823802
C            7.22076119693937       -1.19400374269945        0.73140076550219
C            6.62556354154073       -2.51257915878897        0.51781138626296
C            7.27028369088269       -3.68934517250505        0.88179123258794
C            6.68828012681783       -4.92776526287080        0.67116065512271
C            5.44889309899445       -5.02562050544874        0.09351097899223
C            4.75359982457940       -3.87479813526961       -0.29408332471742
C            3.46481058643364       -3.95170624537791       -0.89542636154952
C            2.80332202990250       -2.83657969196282       -1.27593116406203
C            3.36321182052910       -1.53631339282673       -1.09499963283040
C            4.63252491412882       -1.42990148087627       -0.48826705514275
C            5.34180957573144       -2.60557216958107       -0.08459853564929
C            5.21325125389443       -0.15189309672866       -0.28175460179339
C            6.50213703716539       -0.03716919728848        0.32905669953459
H            1.03521383808130        0.46464545228288       -2.62038221952612
H            0.58213038032331       -0.81000511762771       -1.49314201496864
H            1.40092507652895       -1.20195076210609       -3.01168927355376
H            1.79397122133400        1.44867971898343        0.79590982197403
H           -0.31999588076576        1.84977889811695        1.96112020699625
H           -2.60850650233846        2.77286989521685        1.98786112495231
H           -4.41814355541606        3.94703497518477        0.85710694984590
H           -5.29539959918940        5.08180679288263       -1.15765229101399
H           -4.98990618207922        5.86360077297514       -3.46281514052035
H           -2.86667665846386        5.48473487351489       -4.63190099873912
H           -0.55917706611012        4.59007553839299       -4.65259526552772
H            1.25266488442403        3.43948920472434       -3.51196532906747
H            4.58286520929195        3.14962454032356       -0.79336264638755
H            6.76690752877357        3.36853503488394        0.26198744575576
H            8.75119860298499        2.33490709251153        1.27066075885968
H            9.98592516579275        0.33553420250763        1.96039646934883
H            9.03714112274584       -1.88102572388792        1.62753030672816
H            8.24303947937945       -3.64796032877683        1.33623042207108
H            7.21450933848553       -5.82188855467410        0.96317520544664
H            4.99926714579019       -5.99009954186975       -0.06851979437808
H            3.02179266871539       -4.92162530897414       -1.04209505852163
H            1.82734117360287       -2.92809450802882       -1.71830143000864
