44
 energy: -7.449821386448 gnorm: 0.000918383695 xtb: 6.5.0 (97a52f5)
C           -0.02553840296936       -3.30420835659191       -0.00894586316533
C           -0.38942683951749       -1.86030472273138       -0.06108691176951
C           -1.67794186520041       -1.48242295707370       -0.15872623854452
C           -2.07774089961366       -0.09191149398075       -0.21442795325430
O           -3.26670400029062        0.16630692669414       -0.30289776978753
O           -1.12037894478329        0.88567349207039       -0.16745262594339
C            0.20484666057508        0.51356112918894       -0.06537062792264
C            1.16388672496210        1.52436176224869       -0.01529860830757
C            2.51218283737373        1.24307317093884        0.09114218589673
N            3.48238604841828        2.26640900398840        0.15245468598653
C            3.33362623438267        3.59933821400215       -0.01658231371147
C            4.37435629814620        4.48789134320980        0.09055284600219
C            4.28913616111633        5.87916629351579       -0.08636161576821
C            5.43782717133074        6.63675428276379       -0.00665069613781
C            5.42825015310634        8.02372224714362       -0.16288731598754
C            6.67354923234003        8.82927955868488       -0.15964128490368
O            6.62377155387280        9.93842479216587        0.33306380001540
O            7.79888527917102        8.31129606963903       -0.72068844493161
N            4.26893671600190        8.67861044975821       -0.25685771440433
C            2.94802743588169        8.05988260254693       -0.07283174809418
C            2.49436350657941        8.28945246679873        1.35801391642711
O            3.03919773018337        7.64797027230784        2.22625585140832
O            1.51664597410669        9.19681125886718        1.59237977256346
C            2.97793529733998        6.54887482387765       -0.39887571507735
C            2.90801694600155       -0.10075794655853        0.14926348938706
C            1.98694884267187       -1.10901459967161        0.09927434268866
C            0.61655350357741       -0.83459523326429       -0.00879583470541
H           -0.91043004696372       -3.93989391106925       -0.06541792652920
H            0.48843560356786       -3.54220565527577        0.92376229351448
H            0.62258442924140       -3.57213528931990       -0.84502846362954
H           -2.46002353014106       -2.21978950543760       -0.19855713021218
H            0.81702942465768        2.53957390762582       -0.04754250689524
H            4.42755965083761        1.94755435983516        0.34971614037764
H            2.35450808429164        3.95998705392657       -0.27153889935093
H            5.34316875474704        4.08116769559212        0.32353263326742
H            6.37176268344817        6.14780585007943        0.20875828702431
H            7.65421722701914        7.46085983726852       -1.16872004293546
H            4.26100779505617        9.69880417436878       -0.25530161902375
H            2.24849018720613        8.55972064781447       -0.76050384309524
H            1.17705826106938        9.62935556293032        0.79107795011893
H            2.74477889120006        6.38522670675218       -1.45798386074120
H            2.18376959704147        6.06556237219270        0.18079644790959
H            3.95595218728149       -0.33467673049292        0.22904855713301
H            2.32140144567745       -2.13152192732887        0.14485037511209
