33
 energy: -6.688131236361 gnorm: 0.000770575381 xtb: 6.5.0 (97a52f5)
C            2.35719875388611        0.67753525240694        1.56997091224402
C            3.20996712660638       -0.29217445647079        0.84920695151416
C            3.32733106152123       -1.62992633339570        1.17263776775154
C            4.21620077783313       -2.17388832971566        0.23425850414619
C            4.61424405385100       -1.12415176448462       -0.64955140984888
O            3.97378723739622        0.03514909282078       -0.24992416051043
C            5.50480432726279       -1.66044091261441       -1.58925785172436
C            5.66473098904246       -3.03518836490293       -1.28717445281283
C            6.44260083370024       -4.00043401568807       -1.90991822336763
C            6.42789840901990       -5.28803851517991       -1.39374283655341
C            7.12794460313127       -6.44506226813073       -1.81520295482731
C            6.77534848126149       -7.48814549470440       -0.94852190658521
O            6.98660999420361       -8.82582134675519       -0.66724118874401
C            6.21432549436397       -9.12563248701981        0.43400601840223
C            6.16138259961865      -10.46501024086965        1.05840980868565
C            5.50763286167489       -8.02484362254631        0.87716943386487
C            5.85033157590503       -6.97535266160588        0.01216934420736
N            5.66665720425659       -5.65428556912122       -0.28646684095434
B            4.75494575020473       -4.68523531518632        0.47195449871623
F            3.44601163908858       -5.12522363577220        0.37872058716460
F            5.17076434605779       -4.60535967249401        1.78955959015850
N            4.86798395728509       -3.30253418606140       -0.17671459437535
H            2.70077803521494        1.69407161070130        1.38009350122626
H            2.38717786073630        0.50345337384938        2.64552232537881
H            1.32221690110254        0.60194183415671        1.23711153999570
H            2.84412922414055       -2.15461023406523        1.97658565691250
H            5.97478549086641       -1.12183838108412       -2.39160334904697
H            7.04568203930050       -3.75591447339173       -2.76395399372840
H            7.81160150883906       -6.51590051116696       -2.64122850841290
H            6.77556208919533      -11.16650322522778        0.49437851804588
H            5.14043654067093      -10.84603464514862        1.07692920003402
H            6.53596764565773      -10.43195888956618        2.08136280208330
H            4.83735058709561       -7.97106161157135        1.71560531095948
