      -----------------------------------------------------------      
     |                   =====================                   |     
     |                           x T B                           |     
     |                   =====================                   |     
     |                         S. Grimme                         |     
     |          Mulliken Center for Theoretical Chemistry        |     
     |                    University of Bonn                     |     
      -----------------------------------------------------------      

   * xtb version 6.5.0 (97a52f5) compiled by 'conda@d2599ee0d4f4' on 2022-05-15

   xtb is free software: you can redistribute it and/or modify it under
   the terms of the GNU Lesser General Public License as published by
   the Free Software Foundation, either version 3 of the License, or
   (at your option) any later version.
   
   xtb is distributed in the hope that it will be useful,
   but WITHOUT ANY WARRANTY; without even the implied warranty of
   MERCHANTABILITY or FITNESS FOR A PARTICULAR PURPOSE.  See the
   GNU Lesser General Public License for more details.
   
   Cite this work as:
   * C. Bannwarth, E. Caldeweyher, S. Ehlert, A. Hansen, P. Pracht,
     J. Seibert, S. Spicher, S. Grimme, WIREs Comput. Mol. Sci., 2020, 11,
     e01493. DOI: 10.1002/wcms.1493
   
   for GFN2-xTB:
   * C. Bannwarth, S. Ehlert and S. Grimme., J. Chem. Theory Comput., 2019,
     15, 1652-1671. DOI: 10.1021/acs.jctc.8b01176
   for GFN1-xTB:
   * S. Grimme, C. Bannwarth, P. Shushkov, J. Chem. Theory Comput., 2017,
     13, 1989-2009. DOI: 10.1021/acs.jctc.7b00118
   for GFN0-xTB:
   * P. Pracht, E. Caldeweyher, S. Ehlert, S. Grimme, ChemRxiv, 2019, preprint.
     DOI: 10.26434/chemrxiv.8326202.v1
   for GFN-FF:
   * S. Spicher and S. Grimme, Angew. Chem. Int. Ed., 2020, 59, 15665-15673.
     DOI: 10.1002/anie.202004239
   
   for ALPB and GBSA implicit solvation:
   * S. Ehlert, M. Stahn, S. Spicher, S. Grimme, J. Chem. Theory Comput.,
     2021, 17, 4250-4261. DOI: 10.1021/acs.jctc.1c00471
   
   for DFT-D4:
   * E. Caldeweyher, C. Bannwarth and S. Grimme, J. Chem. Phys., 2017,
     147, 034112. DOI: 10.1063/1.4993215
   * E. Caldeweyher, S. Ehlert, A. Hansen, H. Neugebauer, S. Spicher,
     C. Bannwarth and S. Grimme, J. Chem. Phys., 2019, 150, 154122.
     DOI: 10.1063/1.5090222
   * E. Caldeweyher, J.-M. Mewes, S. Ehlert and S. Grimme, Phys. Chem. Chem. Phys.
     2020, 22, 8499-8512. DOI: 10.1039/D0CP00502A
   
   for sTDA-xTB:
   * S. Grimme and C. Bannwarth, J. Chem. Phys., 2016, 145, 054103.
     DOI: 10.1063/1.4959605
   
   in the mass-spec context:
   * V. Asgeirsson, C. Bauer and S. Grimme, Chem. Sci., 2017, 8, 4879.
     DOI: 10.1039/c7sc00601b
   * J. Koopman and S. Grimme, ACS Omega 2019, 4, 12, 15120-15133.
     DOI: 10.1021/acsomega.9b02011
   
   for metadynamics refer to:
   * S. Grimme, J. Chem. Theory Comput., 2019, 155, 2847-2862
     DOI: 10.1021/acs.jctc.9b00143
   
   for SPH calculations refer to:
   * S. Spicher and S. Grimme, J. Chem. Theory Comput., 2021, 17, 1701-1714
     DOI: 10.1021/acs.jctc.0c01306
   
   with help from (in alphabetical order)
   P. Atkinson, C. Bannwarth, F. Bohle, G. Brandenburg, E. Caldeweyher
   M. Checinski, S. Dohm, S. Ehlert, S. Ehrlich, I. Gerasimov, C. Hölzer
   A. Katbashev, J. Koopman, C. Lavigne, S. Lehtola, F. März, M. Müller,
   F. Musil, H. Neugebauer, J. Pisarek, C. Plett, P. Pracht, F. Pultar,
   J. Seibert, P. Shushkov, S. Spicher, M. Stahn, M. Steiner, T. Strunk,
   J. Stückrath, T. Rose, and J. Unsleber
   
 * started run on 2024/08/24 at 16:08:09.282     

           -------------------------------------------------
          |                Calculation Setup                |
           -------------------------------------------------

          program call               : xtb 4.xyz --chrg 1 --gbsa water
          coordinate file            : 4.xyz
          omp threads                :                    16

   ID    Z sym.   atoms
    1   35 Br     1, 9, 12, 17
    2    6 C      2, 3, 5, 7, 8, 10, 11, 13, 15, 16, 18
    3    7 N      4, 6, 14
    4    1 H      19-24

           -------------------------------------------------
          |                 G F N 2 - x T B                 |
           -------------------------------------------------

        Reference                      10.1021/acs.jctc.8b01176
      * Hamiltonian:
        H0-scaling (s, p, d)           1.850000    2.230000    2.230000
        zeta-weighting                 0.500000
      * Dispersion:
        s8                             2.700000
        a1                             0.520000
        a2                             5.000000
        s9                             5.000000
      * Repulsion:
        kExp                           1.500000    1.000000
        rExp                           1.000000
      * Coulomb:
        alpha                          2.000000
        third order                    shell-resolved
        anisotropic                    true
        a3                             3.000000
        a5                             4.000000
        cn-shift                       1.200000
        cn-exp                         4.000000
        max-rad                        5.000000

      * Solvation model:               GBSA
        Solvent                        water
        Parameter file                 internal GFN2-xTB/GBSA
        Dielectric constant                8.0200E+01
        Reference state                gsolv [1 M gas/solution]
        Free energy shift                  1.8574E-03 Eh       1.1656E+00 kcal/mol
        Temperature                        2.9815E+02 K
        Density                            1.0000E+00 kg/L
        Solvent mass                       1.8000E+01 g/mol
        Interaction kernel             Still
        Born radius scaling (c1)           1.5524E+00
        Born radii integrator          GBOBC
        Born offset                        2.4628E-02 a0       4.6540E-02 AA
        H-bond correction              true
        Ion screening                  false
        Surface tension                    1.0000E-05 Eh       1.5569E+01 dyn/cm
        Grid points                               230 per atom

          ...................................................
          :                      SETUP                      :
          :.................................................:
          :  # basis functions                 102          :
          :  # atomic orbitals                  98          :
          :  # shells                           46          :
          :  # electrons                        92          :
          :  max. iterations                   250          :
          :  Hamiltonian                  GFN2-xTB          :
          :  restarted?                      false          :
          :  GBSA solvation                   true          :
          :  PC potential                    false          :
          :  electronic temp.          300.0000000     K    :
          :  accuracy                    1.0000000          :
          :  -> integral cutoff          0.2500000E+02      :
          :  -> integral neglect         0.1000000E-07      :
          :  -> SCF convergence          0.1000000E-05 Eh   :
          :  -> wf. convergence          0.1000000E-03 e    :
          :  Broyden damping             0.4000000          :
          ...................................................

 iter      E             dE          RMSdq      gap      omega  full diag
   1    -51.7245620 -0.517246E+02  0.619E+00    2.37       0.0  T
   2    -51.8979066 -0.173345E+00  0.403E+00    1.77       1.0  T
   3    -51.9062004 -0.829379E-02  0.182E+00    1.78       1.0  T
   4    -51.9081486 -0.194816E-02  0.725E-01    1.75       1.0  T
   5    -51.9164646 -0.831602E-02  0.286E-01    1.74       1.0  T
   6    -51.9166019 -0.137279E-03  0.168E-01    1.73       1.0  T
   7    -51.9166744 -0.725007E-04  0.774E-02    1.75       1.0  T
   8    -51.9167166 -0.422365E-04  0.474E-02    1.74       1.0  T
   9    -51.9167201 -0.353799E-05  0.277E-02    1.74       1.0  T
  10    -51.9167244 -0.425539E-05  0.968E-03    1.74       2.1  T
  11    -51.9167248 -0.438013E-06  0.567E-03    1.74       3.6  T
  12    -51.9167249 -0.890095E-07  0.334E-03    1.74       6.1  T
  13    -51.9167250 -0.658526E-07  0.222E-03    1.74       9.2  T
  14    -51.9167250 -0.168182E-07  0.147E-03    1.74      13.9  T
  15    -51.9167250 -0.682042E-08  0.903E-04    1.74      22.6  T
  16    -51.9167250 -0.530024E-08  0.431E-04    1.74      47.3  T

   *** convergence criteria satisfied after 16 iterations ***

         #    Occupation            Energy/Eh            Energy/eV
      -------------------------------------------------------------
         1        2.0000           -0.8707272             -23.6937
       ...           ...                  ...                  ...
        40        2.0000           -0.4430490             -12.0560
        41        2.0000           -0.4426744             -12.0458
        42        2.0000           -0.4409762             -11.9996
        43        2.0000           -0.4378546             -11.9146
        44        2.0000           -0.4373834             -11.9018
        45        2.0000           -0.4357227             -11.8566
        46        2.0000           -0.4124438             -11.2232 (HOMO)
        47                         -0.3485061              -9.4833 (LUMO)
        48                         -0.3263826              -8.8813
        49                         -0.3088177              -8.4034
        50                         -0.2645281              -7.1982
        51                         -0.2530387              -6.8855
       ...                                ...                  ...
        98                          0.6244975              16.9934
      -------------------------------------------------------------
                  HL-Gap            0.0639377 Eh            1.7398 eV
             Fermi-level           -0.3804750 Eh          -10.3533 eV

 SCC (total)                   0 d,  0 h,  0 min,  0.059 sec
 SCC setup                      ...        0 min,  0.000 sec (  0.329%)
 Dispersion                     ...        0 min,  0.000 sec (  0.420%)
 classical contributions        ...        0 min,  0.000 sec (  0.288%)
 integral evaluation            ...        0 min,  0.002 sec (  3.018%)
 iterations                     ...        0 min,  0.053 sec ( 90.064%)
 molecular gradient             ...        0 min,  0.003 sec (  5.190%)
 printout                       ...        0 min,  0.000 sec (  0.660%)

         :::::::::::::::::::::::::::::::::::::::::::::::::::::
         ::                     SUMMARY                     ::
         :::::::::::::::::::::::::::::::::::::::::::::::::::::
         :: total energy             -51.369689087416 Eh    ::
         :: total w/o Gsasa/hb       -51.362651749391 Eh    ::
         :: gradient norm              0.126228685670 Eh/a0 ::
         :: HOMO-LUMO gap              1.739833257339 eV    ::
         ::.................................................::
         :: SCC energy               -51.916725023126 Eh    ::
         :: -> isotropic ES            0.131033751996 Eh    ::
         :: -> anisotropic ES         -0.006629693397 Eh    ::
         :: -> anisotropic XC          0.025754282377 Eh    ::
         :: -> dispersion             -0.034115593737 Eh    ::
         :: -> Gsolv                  -0.087941252781 Eh    ::
         ::    -> Gelec               -0.080903914755 Eh    ::
         ::    -> Gsasa               -0.005919566138 Eh    ::
         ::    -> Ghb                 -0.002975215015 Eh    ::
         ::    -> Gshift               0.001857443127 Eh    ::
         :: repulsion energy           0.547112749911 Eh    ::
         :: add. restraining           0.000000000000 Eh    ::
         :: total charge               1.000000000000 e     ::
         :::::::::::::::::::::::::::::::::::::::::::::::::::::

           -------------------------------------------------
          |                Property Printout                |
           -------------------------------------------------

    * Orbital Energies and Occupations

         #    Occupation            Energy/Eh            Energy/eV
      -------------------------------------------------------------
         1        2.0000           -0.8707272             -23.6937
       ...           ...                  ...                  ...
        34        2.0000           -0.5099760             -13.8772
        35        2.0000           -0.5010009             -13.6329
        36        2.0000           -0.4995502             -13.5935
        37        2.0000           -0.4649311             -12.6514
        38        2.0000           -0.4488913             -12.2150
        39        2.0000           -0.4442738             -12.0893
        40        2.0000           -0.4430490             -12.0560
        41        2.0000           -0.4426744             -12.0458
        42        2.0000           -0.4409762             -11.9996
        43        2.0000           -0.4378546             -11.9146
        44        2.0000           -0.4373834             -11.9018
        45        2.0000           -0.4357227             -11.8566
        46        2.0000           -0.4124438             -11.2232 (HOMO)
        47                         -0.3485061              -9.4833 (LUMO)
        48                         -0.3263826              -8.8813
        49                         -0.3088177              -8.4034
        50                         -0.2645281              -7.1982
        51                         -0.2530387              -6.8855
        52                         -0.2399085              -6.5282
        53                         -0.2259136              -6.1474
        54                         -0.2153940              -5.8612
        55                         -0.2065295              -5.6200
        56                         -0.1837758              -5.0008
        57                         -0.1044087              -2.8411
       ...                                ...                  ...
        98                          0.6244975              16.9934
      -------------------------------------------------------------
                  HL-Gap            0.0639377 Eh            1.7398 eV
             Fermi-level           -0.3804750 Eh          -10.3533 eV

     #   Z          covCN         q      C6AA      α(0)
     1  35 Br       1.087    -0.111   188.079    22.112
     2   6 C        2.893     0.098    25.820     8.331
     3   6 C        2.946     0.004    27.925     8.667
     4   7 N        2.738     0.014    21.016     6.809
     5   6 C        3.700     0.020    20.396     6.459
     6   7 N        2.747     0.057    20.252     6.684
     7   6 C        2.952     0.009    27.805     8.649
     8   6 C        2.907     0.110    25.577     8.293
     9  35 Br       1.076    -0.094   187.615    22.085
    10   6 C        3.077    -0.015    28.312     8.724
    11   6 C        2.910     0.096    25.873     8.341
    12  35 Br       1.060    -0.080   187.221    22.062
    13   6 C        2.933     0.152    24.713     8.153
    14   7 N        1.840    -0.258    27.556     7.779
    15   6 C        2.898     0.157    24.612     8.134
    16   6 C        2.889     0.090    26.003     8.360
    17  35 Br       1.050    -0.091   187.518    22.079
    18   6 C        3.072    -0.028    28.617     8.771
    19   1 H        0.925     0.142     1.445     1.880
    20   1 H        0.924     0.152     1.382     1.838
    21   1 H        0.924     0.152     1.376     1.834
    22   1 H        0.925     0.165     1.295     1.780
    23   1 H        0.925     0.143     1.442     1.878
    24   1 H        0.925     0.117     1.641     2.003

 Mol. C6AA /au·bohr⁶  :      17471.528262
 Mol. C8AA /au·bohr⁸  :     686362.121907
 Mol. α(0) /au        :        211.704812


Wiberg/Mayer (AO) data.
largest (>0.10) Wiberg bond orders for each atom

 ---------------------------------------------------------------------------
     #   Z sym  total        # sym  WBO       # sym  WBO       # sym  WBO
 ---------------------------------------------------------------------------
     1  35 Br   1.179 --     2 C    1.035
     2   6 C    3.935 --     3 C    1.570    18 C    1.191     1 Br   1.035
     3   6 C    3.943 --     2 C    1.570     4 N    1.181    19 H    0.945
     4   7 N    3.636 --    15 C    1.188     3 C    1.181     5 C    0.990
                            14 N    0.106
     5   6 C    3.905 --     4 N    0.990     6 N    0.964    21 H    0.938
                            20 H    0.934
     6   7 N    3.704 --     7 C    1.281    13 C    1.231     5 C    0.964
     7   6 C    3.935 --     8 C    1.431     6 N    1.281    22 H    0.939
     8   6 C    3.944 --     7 C    1.431    10 C    1.343     9 Br   1.037
     9  35 Br   1.186 --     8 C    1.037
    10   6 C    3.959 --    11 C    1.444     8 C    1.343    23 H    0.948
    11   6 C    3.946 --    10 C    1.444    13 C    1.260    12 Br   1.049
    12  35 Br   1.223 --    11 C    1.049
    13   6 C    3.966 --    11 C    1.260     6 N    1.231    14 N    1.227
    14   7 N    3.055 --    15 C    1.460    13 C    1.227     4 N    0.106
    15   6 C    3.964 --    14 N    1.460     4 N    1.188    16 C    1.094
    16   6 C    3.939 --    18 C    1.615    15 C    1.094    17 Br   1.054
    17  35 Br   1.230 --    16 C    1.054
    18   6 C    3.968 --    16 C    1.615     2 C    1.191    24 H    0.953
    19   1 H    0.979 --     3 C    0.945
    20   1 H    0.975 --     5 C    0.934
    21   1 H    0.975 --     5 C    0.938
    22   1 H    0.972 --     7 C    0.939
    23   1 H    0.979 --    10 C    0.948
    24   1 H    0.985 --    18 C    0.953
 ---------------------------------------------------------------------------

Topologies differ in total number of bonds
Writing topology from bond orders to xtbtopo.mol

molecular dipole:
                 x           y           z       tot (Debye)
 q only:       12.162      -1.922       2.337
   full:       12.150      -1.937       2.345      31.834
molecular quadrupole (traceless):
                xx          xy          yy          xz          yz          zz
 q only:      158.490     -37.062     -78.214      46.708      -6.580     -80.276
  q+dip:      159.796     -37.946     -76.429      49.494      -5.634     -83.367
   full:      158.040     -37.550     -74.410      49.296      -4.689     -83.631


           -------------------------------------------------
          | TOTAL ENERGY              -51.369689087416 Eh   |
          | GRADIENT NORM               0.126228685670 Eh/α |
          | HOMO-LUMO GAP               1.739833257339 eV   |
           -------------------------------------------------
########################################################################
[WARNING] Runtime exception occurred
-2- restart_readRestart: Dimension missmatch in restart file.
-1- restart_readRestart: Number of electron missmatch in restart file.
########################################################################

------------------------------------------------------------------------
 * finished run on 2024/08/24 at 16:08:09.351     
------------------------------------------------------------------------
 total:
 * wall-time:     0 d,  0 h,  0 min,  0.070 sec
 *  cpu-time:     0 d,  0 h,  0 min,  1.054 sec
 * ratio c/w:    15.151 speedup
 SCF:
 * wall-time:     0 d,  0 h,  0 min,  0.059 sec
 *  cpu-time:     0 d,  0 h,  0 min,  0.938 sec
 * ratio c/w:    15.952 speedup

