25
 energy: -5.644263244063 gnorm: 0.000745339624 xtb: 6.5.0 (97a52f5)
C            2.19725171738340        0.13413232620028        0.10344167632217
N            0.73918264114414        0.03334266773271        0.07512030288374
C           -0.12523309831650        1.09769037970794        0.07016566802708
C           -1.40555511549659        0.61225490685512       -0.00898905645654
C           -1.33436992582238       -0.77862607728623       -0.05543485004720
C            0.00037625776097       -1.14040687134373       -0.00074792769968
C            0.54792109434454       -2.50693019726397       -0.02389558787651
C            1.45947705737379       -2.89695733697852        0.95103359374499
C            2.00687828171714       -4.16889077272334        0.96915357763293
C            2.92682393524912       -4.53088959226460        1.96629090481695
N            3.68790567996580       -4.82712400508214        2.79096796641989
C            1.62761554028339       -5.07349245897951       -0.01529182215118
C            0.72601172786705       -4.70988471102104       -0.98804308713982
C            0.17410434939407       -3.43580773355253       -1.01426216059744
C           -0.72329332303771       -3.10367190222845       -2.03878650478016
N           -1.46294617011924       -2.84076592407015       -2.89446663907725
H            2.51670850721777        1.04300629011549       -0.40206732028720
H            2.64188315996376       -0.71941148348806       -0.40414282499651
H            2.54772426772548        0.16233039779708        1.13308118793658
H            0.17129394813033        2.13354711152734        0.11456699174302
H           -2.30833802904916        1.20239585511928       -0.03788049960404
H           -2.16610275122017       -1.46056502455425       -0.12554695067673
H            1.73909663391505       -2.19751400251775        1.71817016967494
H            2.05051712600262       -6.06379659856121       -0.00681606750262
H            0.43990648762410       -5.41508524313966       -1.75018074030991
