15
 energy: -3.254817908581 gnorm: 0.000585137894 xtb: 6.5.0 (97a52f5)
N            1.27514704534254        0.03837885763860        0.18135343014326
C            2.43203058357225        0.03030119938049        0.08581177467653
C            3.83241684449136        0.01737335501061       -0.02869251644870
C            4.55214220890273        1.20711062658725       -0.07899722996883
C            5.92704505723705        1.18963506761174       -0.19258194803719
C            6.60230763884188       -0.00734977871816       -0.25849268491697
C            5.90906390572950       -1.21916619619362       -0.21302685005715
N            6.58441933613396       -2.43039658914572       -0.28897061690063
C            4.51925204938594       -1.18377157872902       -0.09568246963145
H            4.02092863578726        2.14240174839669       -0.02988959621737
H            6.47420741700016        2.11758717260755       -0.22725951185617
H            7.67440560867403       -0.02260863263370       -0.34436871468846
H            7.54522177002893       -2.47502358253839       -0.57957890859784
H            6.09657326619665       -3.29012429456729       -0.46889303535932
H            3.97055863267574       -2.10662737470706       -0.05320112213975
