28
 energy: -8.613273273021 gnorm: 0.000921306137 xtb: 6.5.0 (97a52f5)
O            1.16495981844810        0.22657755051939        0.33763959612833
C            2.32646886120083       -0.06203108642653       -0.00900370617069
O            2.98502311718366        0.48343824537868       -0.91518594728550
C            2.99840054006481       -1.19031124375792        0.74004627566455
C            2.56507981691879       -2.47565911699984        0.54979684923126
C            3.16088596337617       -3.54841096547139        1.22145892640250
C            4.19895691733949       -3.35361342552484        2.09402856256906
C            4.81307682523602       -4.54674537357068        2.78857495742468
O            6.01265711372992       -4.78517866223337        2.54939954609588
O            4.06574388255711       -5.20275456746240        3.53945315872925
C            4.68192296233254       -2.02625525022271        2.33959208525947
C            5.71371812838458       -1.77270148634192        3.24059569215749
C            6.17373333090999       -0.47595631010590        3.48361037476576
C            7.22594083524988       -0.20533782269297        4.40408738176057
C            7.65140625649698        1.06965864610367        4.61922217787042
C            7.05802185757349        2.14922294966386        3.93321131170649
C            6.04851470276543        1.93463543570110        3.04555798751192
C            5.57094883290003        0.61760435011047        2.79108325535231
C            4.53276352148999        0.36415728569037        1.89112781316047
C            4.07403687266899       -0.92888763406156        1.65006456024968
H            1.75142144622833       -2.65465133245770       -0.13449073305242
H            2.80571476226742       -4.55205751724364        1.05173604801076
H            6.16720301396149       -2.59575946013886        3.76497187987966
H            7.68109079743252       -1.02989070040071        4.93043009828720
H            8.45075547493272        1.26079145820387        5.32103844925827
H            7.41091624712323        3.15408162984356        4.11666179315642
H            5.59546281746637        2.76206923848241        2.52192524773493
H            4.07506528376087        1.18913516541540        1.37321635814130
