72
 energy: -15.440052791350 gnorm: 0.000530371344 xtb: 6.5.0 (97a52f5)
C            1.16360781767096       -0.54419870486678        0.70705857433229
C            0.89274354646717        0.68656142805115        0.14302521079873
C           -0.40965037044245        1.05855438854037       -0.11258686092983
C           -1.46891905018905        0.20499431482511        0.19330400946110
C           -2.86983825226503        0.60625610834382       -0.07511999844028
C           -3.21839760681858        1.23640026558085       -1.26880069270285
C           -4.51829844266016        1.61371133349793       -1.51522436418509
C           -5.52167361494233        1.37934592491122       -0.57663161573883
C           -6.91967923196066        1.79332268922306       -0.83799229428237
C           -7.50335465515897        1.58385212063249       -2.08332725028019
C           -8.81505695251169        1.96637382736337       -2.34541970984093
C           -9.42039357373433        1.73239275292741       -3.67680025736793
C           -9.21492006702739        0.53254598463624       -4.35577268875576
C           -9.77931464510239        0.31454936587559       -5.59145183461687
C          -10.57061051069602        1.28796328183364       -6.19963100966625
C          -11.18245881688749        1.05234227093780       -7.52840427838901
C          -11.76590804989744       -0.17521147062791       -7.83980956645491
C          -12.33874516409040       -0.39135751004715       -9.07478323497367
C          -12.34012639539566        0.61203876460906      -10.02314744729610
C          -11.76578847741188        1.83371836454727       -9.73340015710667
C          -11.19313577019247        2.05339272098014       -8.49895971925550
C          -10.77411827551453        2.48860566579495       -5.52093145669904
C          -10.21163825464277        2.70578711543702       -4.28431269288031
C           -9.54539277109103        2.57193817136189       -1.32770926319450
C           -8.99313936086000        2.79662908438273       -0.07074327378293
C           -9.78692744334029        3.43593467417945        1.00415519610970
C          -11.11237559598424        3.06886762095427        1.23017895533842
C          -11.84467429656272        3.65208730214694        2.23838412318233
C          -11.28271522515608        4.62808430015954        3.06009677554769
C          -12.06805087688724        5.24648869468829        4.15399990549871
C          -12.88557089087760        4.46943184801364        4.97388233553411
C          -13.61403753882439        5.04427249567539        5.99304869864786
C          -13.54198568081788        6.40529827512410        6.21369136174654
C          -12.73809960068222        7.19096170064019        5.41185438826264
C          -12.00721713526712        6.61892333355807        4.39269965106276
C           -9.95905036796811        4.99981200671073        2.82910943726614
C           -9.22571970120923        4.41444097107714        1.82283576195216
C           -7.67895724804552        2.40105766173784        0.15670010644186
C           -5.17387448219766        0.74832063824908        0.61645104923639
C           -3.87458737672367        0.36836455896454        0.86152218922047
C           -1.17590655194471       -1.03366561968774        0.76251983224671
C            0.12768706091207       -1.40324472670719        1.01561421835967
H            2.18256531653246       -0.83401029450430        0.90652336524675
H            1.70084670673606        1.35875849632188       -0.09608806222319
H           -0.62133747676543        2.02306622477481       -0.54144961678976
H           -2.45527879617823        1.41899451146995       -2.00575971036634
H           -4.77032106254095        2.10866641007207       -2.43733298657958
H           -6.92742610117290        1.11571385168287       -2.86073223778148
H           -8.61416475620631       -0.23277973063617       -3.89508579291454
H           -9.60472160669230       -0.61424798060088       -6.10675646065176
H          -11.77542611766163       -0.95404842921779       -7.09661718659311
H          -12.78896997983087       -1.34486895756507       -9.29918505267214
H          -12.78872399710229        0.44196398652828      -10.98848230710758
H          -11.76448780239600        2.61712508117086      -10.47398021275628
H          -10.73643171350485        3.00282560028004       -8.27740255124443
H          -11.39054522742959        3.24650175285764       -5.97303829804751
H          -10.37157451042944        3.64146297293695       -3.77669810008699
H          -10.56022526991144        2.87149924318048       -1.51591675465384
H          -11.55698445526638        2.30887811877790        0.61088749092265
H          -12.86885089910390        3.36143901104072        2.39723225697342
H          -12.93299190803295        3.40644385010449        4.80970502726833
H          -14.23939267253181        4.42962323239682        6.62020041254650
H          -14.11249309999528        6.85373454797351        7.01082383484953
H          -12.68306947784467        8.25408540430564        5.58233123105659
H          -11.38855107239127        7.23360523019407        3.76150194412488
H           -9.50842103819214        5.74681710016260        3.45971140803362
H           -8.20622926978257        4.71577504923308        1.65366355208362
H           -7.24051370320343        2.56810755644865        1.12369189633284
H           -5.94017183093608        0.55130698488694        1.34634146037092
H           -3.61942676715206       -0.10991255249738        1.79143701162104
H           -1.98278224319149       -1.70751695519373        0.99428788173083
H            0.33849072910758       -2.36525331084289        1.45411444392352
