58
 energy: -12.859139655254 gnorm: 0.000600192427 xtb: 6.5.0 (97a52f5)
C            2.14843788657054        0.23239490497876       -0.77032126504535
C            2.21108160678912       -0.31116476529897        0.52303722628315
C            1.07186687645055       -0.58886584541224        1.23030159330020
C           -0.16502741544624       -0.31797656914838        0.63339339205741
N           -1.46617348599978       -0.46957760407568        1.04971346062006
C           -2.26476769064574       -0.02026078385575        0.00050052865170
C           -3.72387531680130       -0.00855579087156        0.02300801903036
C           -4.43811386965919        0.32284186592764       -1.12623830745096
C           -5.81203374521191        0.33218301719320       -1.12591718449472
C           -6.53047812923400        0.01517767165661        0.02845567342067
C           -8.00878775151911        0.02392766130263        0.03157243102850
C           -8.73258999068011       -0.44557372076215       -1.06542986108419
C          -10.10708413777332       -0.44148609716890       -1.06073416499220
C          -10.81984426700052        0.03880023723134        0.03859271123463
C          -12.29831979734660        0.05134645093939        0.04095277169459
C          -13.02716499164868       -1.01697209494322       -0.48482704296454
C          -14.40101918121762       -1.00270710430400       -0.47957794005615
C          -15.10417275105545        0.07977108141969        0.04452000927881
C          -16.56346246606773        0.07476393184377        0.04301347129030
N          -17.29517502302177       -0.97491684842233       -0.31018303810896
C          -18.59572099619761       -0.58877191300705       -0.18329897312889
C          -19.78707579320659       -1.29335504700020       -0.42228872314258
C          -20.98275676616602       -0.65724141317814       -0.21907159225939
C          -21.03529432635020        0.67609296746256        0.21865929369727
C          -19.89066627347576        1.38739364666139        0.46167938718784
C          -18.65833488999276        0.75372934795361        0.26308781363890
N          -17.35384348713963        1.16250209290154        0.40726270507424
C          -14.37937022094889        1.14840761632599        0.56909474728588
C          -13.00531550184924        1.13316626695343        0.56925557767592
C          -10.09640914672898        0.51035363990532        1.13472591724241
C           -8.72201857942239        0.50024410970756        1.13249793156368
C           -5.81199578077661       -0.31072059098712        1.18043708918450
C           -4.43789214962374       -0.32430831851650        1.17752795555339
N           -1.54120807496946        0.39679219524452       -1.03126541089008
C           -0.23788597000521        0.22776725556990       -0.67133906702657
C            0.94813567787369        0.50290335714646       -1.37179012853732
H            3.06447377944966        0.43987425700920       -1.29847406074650
H            3.17313370409372       -0.51240545545988        0.96465848150962
H            1.10879845529359       -1.00511507348069        2.22105106602339
H           -1.75969953892765       -0.84949819156941        1.94840703053720
H           -3.89260108399357        0.57175555641061       -2.01946608848156
H           -6.34812412972751        0.60230775689686       -2.01905953504511
H           -8.19982319389100       -0.82817681086813       -1.91865541766403
H          -10.64898901628155       -0.79833975466004       -1.91939914487831
H          -12.49870440599413       -1.86597176116453       -0.88241710309168
H          -14.95521025238141       -1.83206911243467       -0.88265925330290
H          -19.74166488226275       -2.31396543501669       -0.75715135411312
H          -21.90276966798774       -1.18889294970961       -0.39814526691435
H          -21.99392737536630        1.14585651937686        0.36491841994066
H          -19.92002029867077        2.40882758515200        0.79633553552603
H          -17.05245587174856        2.09587938744900        0.68313085833889
H          -14.90648281221202        1.98943693120517        0.98219046738794
H          -12.45838283655473        1.97067207825127        0.96634600422958
H          -10.63001141373501        0.87273882813514        1.99627888440841
H           -8.18103030898934        0.87692648558719        1.98318079738562
H           -6.34950803240547       -0.57047164811552        2.07582649197028
H           -3.90248996192831       -0.57761656986067        2.07472747436257
H            0.89519506370178        0.91880256549713       -2.36179129419294
