      -----------------------------------------------------------      
     |                   =====================                   |     
     |                           x T B                           |     
     |                   =====================                   |     
     |                         S. Grimme                         |     
     |          Mulliken Center for Theoretical Chemistry        |     
     |                    University of Bonn                     |     
      -----------------------------------------------------------      

   * xtb version 6.5.0 (97a52f5) compiled by 'conda@d2599ee0d4f4' on 2022-05-15

   xtb is free software: you can redistribute it and/or modify it under
   the terms of the GNU Lesser General Public License as published by
   the Free Software Foundation, either version 3 of the License, or
   (at your option) any later version.
   
   xtb is distributed in the hope that it will be useful,
   but WITHOUT ANY WARRANTY; without even the implied warranty of
   MERCHANTABILITY or FITNESS FOR A PARTICULAR PURPOSE.  See the
   GNU Lesser General Public License for more details.
   
   Cite this work as:
   * C. Bannwarth, E. Caldeweyher, S. Ehlert, A. Hansen, P. Pracht,
     J. Seibert, S. Spicher, S. Grimme, WIREs Comput. Mol. Sci., 2020, 11,
     e01493. DOI: 10.1002/wcms.1493
   
   for GFN2-xTB:
   * C. Bannwarth, S. Ehlert and S. Grimme., J. Chem. Theory Comput., 2019,
     15, 1652-1671. DOI: 10.1021/acs.jctc.8b01176
   for GFN1-xTB:
   * S. Grimme, C. Bannwarth, P. Shushkov, J. Chem. Theory Comput., 2017,
     13, 1989-2009. DOI: 10.1021/acs.jctc.7b00118
   for GFN0-xTB:
   * P. Pracht, E. Caldeweyher, S. Ehlert, S. Grimme, ChemRxiv, 2019, preprint.
     DOI: 10.26434/chemrxiv.8326202.v1
   for GFN-FF:
   * S. Spicher and S. Grimme, Angew. Chem. Int. Ed., 2020, 59, 15665-15673.
     DOI: 10.1002/anie.202004239
   
   for ALPB and GBSA implicit solvation:
   * S. Ehlert, M. Stahn, S. Spicher, S. Grimme, J. Chem. Theory Comput.,
     2021, 17, 4250-4261. DOI: 10.1021/acs.jctc.1c00471
   
   for DFT-D4:
   * E. Caldeweyher, C. Bannwarth and S. Grimme, J. Chem. Phys., 2017,
     147, 034112. DOI: 10.1063/1.4993215
   * E. Caldeweyher, S. Ehlert, A. Hansen, H. Neugebauer, S. Spicher,
     C. Bannwarth and S. Grimme, J. Chem. Phys., 2019, 150, 154122.
     DOI: 10.1063/1.5090222
   * E. Caldeweyher, J.-M. Mewes, S. Ehlert and S. Grimme, Phys. Chem. Chem. Phys.
     2020, 22, 8499-8512. DOI: 10.1039/D0CP00502A
   
   for sTDA-xTB:
   * S. Grimme and C. Bannwarth, J. Chem. Phys., 2016, 145, 054103.
     DOI: 10.1063/1.4959605
   
   in the mass-spec context:
   * V. Asgeirsson, C. Bauer and S. Grimme, Chem. Sci., 2017, 8, 4879.
     DOI: 10.1039/c7sc00601b
   * J. Koopman and S. Grimme, ACS Omega 2019, 4, 12, 15120-15133.
     DOI: 10.1021/acsomega.9b02011
   
   for metadynamics refer to:
   * S. Grimme, J. Chem. Theory Comput., 2019, 155, 2847-2862
     DOI: 10.1021/acs.jctc.9b00143
   
   for SPH calculations refer to:
   * S. Spicher and S. Grimme, J. Chem. Theory Comput., 2021, 17, 1701-1714
     DOI: 10.1021/acs.jctc.0c01306
   
   with help from (in alphabetical order)
   P. Atkinson, C. Bannwarth, F. Bohle, G. Brandenburg, E. Caldeweyher
   M. Checinski, S. Dohm, S. Ehlert, S. Ehrlich, I. Gerasimov, C. Hölzer
   A. Katbashev, J. Koopman, C. Lavigne, S. Lehtola, F. März, M. Müller,
   F. Musil, H. Neugebauer, J. Pisarek, C. Plett, P. Pracht, F. Pultar,
   J. Seibert, P. Shushkov, S. Spicher, M. Stahn, M. Steiner, T. Strunk,
   J. Stückrath, T. Rose, and J. Unsleber
   
 * started run on 2024/08/24 at 16:08:10.193     

           -------------------------------------------------
          |                Calculation Setup                |
           -------------------------------------------------

          program call               : xtb 8.xyz --chrg 0 --gbsa water
          coordinate file            : 8.xyz
          omp threads                :                    16

   ID    Z sym.   atoms
    1   35 Br     1, 27
    2    6 C      2-10, 12-26, 28-35, 37-50
    3    7 N      11, 36
    4    1 H      51-84

           -------------------------------------------------
          |                 G F N 2 - x T B                 |
           -------------------------------------------------

        Reference                      10.1021/acs.jctc.8b01176
      * Hamiltonian:
        H0-scaling (s, p, d)           1.850000    2.230000    2.230000
        zeta-weighting                 0.500000
      * Dispersion:
        s8                             2.700000
        a1                             0.520000
        a2                             5.000000
        s9                             5.000000
      * Repulsion:
        kExp                           1.500000    1.000000
        rExp                           1.000000
      * Coulomb:
        alpha                          2.000000
        third order                    shell-resolved
        anisotropic                    true
        a3                             3.000000
        a5                             4.000000
        cn-shift                       1.200000
        cn-exp                         4.000000
        max-rad                        5.000000

      * Solvation model:               GBSA
        Solvent                        water
        Parameter file                 internal GFN2-xTB/GBSA
        Dielectric constant                8.0200E+01
        Reference state                gsolv [1 M gas/solution]
        Free energy shift                  1.8574E-03 Eh       1.1656E+00 kcal/mol
        Temperature                        2.9815E+02 K
        Density                            1.0000E+00 kg/L
        Solvent mass                       1.8000E+01 g/mol
        Interaction kernel             Still
        Born radius scaling (c1)           1.5524E+00
        Born radii integrator          GBOBC
        Born offset                        2.4628E-02 a0       4.6540E-02 AA
        H-bond correction              true
        Ion screening                  false
        Surface tension                    1.0000E-05 Eh       1.5569E+01 dyn/cm
        Grid points                               230 per atom

          ...................................................
          :                      SETUP                      :
          :.................................................:
          :  # basis functions                 246          :
          :  # atomic orbitals                 244          :
          :  # shells                          136          :
          :  # electrons                       242          :
          :  max. iterations                   250          :
          :  Hamiltonian                  GFN2-xTB          :
          :  restarted?                      false          :
          :  GBSA solvation                   true          :
          :  PC potential                    false          :
          :  electronic temp.          300.0000000     K    :
          :  accuracy                    1.0000000          :
          :  -> integral cutoff          0.2500000E+02      :
          :  -> integral neglect         0.1000000E-07      :
          :  -> SCF convergence          0.1000000E-05 Eh   :
          :  -> wf. convergence          0.1000000E-03 e    :
          :  Broyden damping             0.4000000          :
          ...................................................

 iter      E             dE          RMSdq      gap      omega  full diag
   1   -131.9209104 -0.131921E+03  0.483E+00    1.73       0.0  T
   2   -131.9715128 -0.506024E-01  0.296E+00    1.76       1.0  T
   3   -131.9340875  0.374253E-01  0.102E+00    1.85       1.0  T
   4   -131.9842375 -0.501500E-01  0.313E-01    1.79       1.0  T
   5   -131.9849000 -0.662493E-03  0.162E-01    1.77       1.0  T
   6   -131.9852145 -0.314506E-03  0.103E-01    1.75       1.0  T
   7   -131.9852918 -0.772617E-04  0.781E-02    1.75       1.0  T
   8   -131.9853900 -0.982555E-04  0.439E-02    1.75       1.0  T
   9   -131.9854129 -0.228433E-04  0.164E-02    1.74       1.0  T
  10   -131.9854242 -0.112704E-04  0.670E-03    1.74       1.6  T
  11   -131.9854244 -0.216283E-06  0.323E-03    1.73       3.4  T
  12   -131.9854247 -0.349538E-06  0.100E-03    1.73      10.9  T
  13   -131.9854247 -0.240039E-07  0.480E-04    1.73      22.8  T
  14   -131.9854247 -0.323897E-08  0.341E-04    1.73      32.0  T

   *** convergence criteria satisfied after 14 iterations ***

         #    Occupation            Energy/Eh            Energy/eV
      -------------------------------------------------------------
         1        2.0000           -0.8466364             -23.0381
       ...           ...                  ...                  ...
       115        2.0000           -0.4018516             -10.9349
       116        2.0000           -0.4016067             -10.9283
       117        2.0000           -0.4013035             -10.9200
       118        2.0000           -0.3958862             -10.7726
       119        2.0000           -0.3826309             -10.4119
       120        2.0000           -0.3514932              -9.5646
       121        2.0000           -0.3484444              -9.4817 (HOMO)
       122                         -0.2847176              -7.7476 (LUMO)
       123                         -0.2595856              -7.0637
       124                         -0.2461740              -6.6987
       125                         -0.2346784              -6.3859
       126                         -0.2346226              -6.3844
       ...                                ...                  ...
       244                          0.6920679              18.8321
      -------------------------------------------------------------
                  HL-Gap            0.0637268 Eh            1.7341 eV
             Fermi-level           -0.3165810 Eh           -8.6146 eV

 SCC (total)                   0 d,  0 h,  0 min,  0.548 sec
 SCC setup                      ...        0 min,  0.001 sec (  0.224%)
 Dispersion                     ...        0 min,  0.002 sec (  0.442%)
 classical contributions        ...        0 min,  0.000 sec (  0.022%)
 integral evaluation            ...        0 min,  0.006 sec (  1.181%)
 iterations                     ...        0 min,  0.516 sec ( 94.118%)
 molecular gradient             ...        0 min,  0.017 sec (  3.034%)
 printout                       ...        0 min,  0.005 sec (  0.975%)

         :::::::::::::::::::::::::::::::::::::::::::::::::::::
         ::                     SUMMARY                     ::
         :::::::::::::::::::::::::::::::::::::::::::::::::::::
         :: total energy            -129.797676328716 Eh    ::
         :: total w/o Gsasa/hb      -129.782793704474 Eh    ::
         :: gradient norm              0.091497298413 Eh/a0 ::
         :: HOMO-LUMO gap              1.734095088551 eV    ::
         ::.................................................::
         :: SCC energy              -131.985424749975 Eh    ::
         :: -> isotropic ES            0.020405562513 Eh    ::
         :: -> anisotropic ES          0.010089644756 Eh    ::
         :: -> anisotropic XC          0.075713465809 Eh    ::
         :: -> dispersion             -0.109638714078 Eh    ::
         :: -> Gsolv                  -0.017055479911 Eh    ::
         ::    -> Gelec               -0.002172855669 Eh    ::
         ::    -> Gsasa               -0.015298236129 Eh    ::
         ::    -> Ghb                 -0.001441831239 Eh    ::
         ::    -> Gshift               0.001857443127 Eh    ::
         :: repulsion energy           2.188358616954 Eh    ::
         :: add. restraining           0.000000000000 Eh    ::
         :: total charge              -0.000000000000 e     ::
         :::::::::::::::::::::::::::::::::::::::::::::::::::::

           -------------------------------------------------
          |                Property Printout                |
           -------------------------------------------------

    * Orbital Energies and Occupations

         #    Occupation            Energy/Eh            Energy/eV
      -------------------------------------------------------------
         1        2.0000           -0.8466364             -23.0381
       ...           ...                  ...                  ...
       109        2.0000           -0.4067776             -11.0690
       110        2.0000           -0.4065856             -11.0638
       111        2.0000           -0.4049400             -11.0190
       112        2.0000           -0.4048264             -11.0159
       113        2.0000           -0.4040029             -10.9935
       114        2.0000           -0.4037868             -10.9876
       115        2.0000           -0.4018516             -10.9349
       116        2.0000           -0.4016067             -10.9283
       117        2.0000           -0.4013035             -10.9200
       118        2.0000           -0.3958862             -10.7726
       119        2.0000           -0.3826309             -10.4119
       120        2.0000           -0.3514932              -9.5646
       121        2.0000           -0.3484444              -9.4817 (HOMO)
       122                         -0.2847176              -7.7476 (LUMO)
       123                         -0.2595856              -7.0637
       124                         -0.2461740              -6.6987
       125                         -0.2346784              -6.3859
       126                         -0.2346226              -6.3844
       127                         -0.2286463              -6.2218
       128                         -0.2283867              -6.2147
       129                         -0.2278155              -6.1992
       130                         -0.2271749              -6.1817
       131                         -0.2250227              -6.1232
       132                         -0.2241938              -6.1006
       ...                                ...                  ...
       244                          0.6920679              18.8321
      -------------------------------------------------------------
                  HL-Gap            0.0637268 Eh            1.7341 eV
             Fermi-level           -0.3165810 Eh           -8.6146 eV

     #   Z          covCN         q      C6AA      α(0)
     1  35 Br       1.083    -0.183   190.117    22.232
     2   6 C        2.902     0.070    26.426     8.429
     3   6 C        3.068    -0.046    29.066     8.840
     4   6 C        2.988     0.007    27.852     8.657
     5   6 C        2.906    -0.045    29.126     8.849
     6   6 C        2.904    -0.035    28.866     8.810
     7   6 C        2.973     0.001    27.996     8.679
     8   6 C        2.922    -0.037    28.914     8.818
     9   6 C        2.918    -0.052    29.297     8.876
    10   6 C        2.891     0.067    26.506     8.441
    11   7 N        2.734    -0.104    23.270     7.165
    12   6 C        2.902     0.067    26.508     8.442
    13   6 C        2.915    -0.043    29.079     8.843
    14   6 C        2.910    -0.032    28.794     8.799
    15   6 C        2.913    -0.036    28.900     8.815
    16   6 C        2.910    -0.033    28.813     8.802
    17   6 C        2.913    -0.043    29.069     8.841
    18   6 C        2.902     0.067    26.505     8.441
    19   6 C        2.916    -0.044    29.097     8.845
    20   6 C        2.909    -0.032    28.792     8.799
    21   6 C        2.913    -0.036    28.904     8.816
    22   6 C        2.910    -0.033    28.817     8.803
    23   6 C        2.913    -0.044    29.089     8.844
    24   6 C        2.916    -0.053    29.308     8.877
    25   6 C        2.912    -0.036    28.896     8.815
    26   6 C        2.903     0.070    26.425     8.429
    27  35 Br       1.080    -0.183   190.139    22.233
    28   6 C        3.064    -0.046    29.069     8.841
    29   6 C        2.987     0.007    27.848     8.656
    30   6 C        2.906    -0.045    29.122     8.849
    31   6 C        2.904    -0.035    28.859     8.808
    32   6 C        2.973     0.001    27.991     8.678
    33   6 C        2.922    -0.037    28.926     8.820
    34   6 C        2.918    -0.052    29.300     8.876
    35   6 C        2.892     0.067    26.504     8.441
    36   7 N        2.735    -0.104    23.275     7.165
    37   6 C        2.902     0.067    26.509     8.442
    38   6 C        2.915    -0.043    29.078     8.842
    39   6 C        2.910    -0.032    28.794     8.799
    40   6 C        2.913    -0.036    28.902     8.816
    41   6 C        2.910    -0.033    28.814     8.802
    42   6 C        2.913    -0.043    29.072     8.841
    43   6 C        2.901     0.066    26.512     8.443
    44   6 C        2.916    -0.044    29.087     8.844
    45   6 C        2.908    -0.032    28.800     8.800
    46   6 C        2.914    -0.037    28.919     8.818
    47   6 C        2.909    -0.034    28.835     8.805
    48   6 C        2.913    -0.044    29.085     8.843
    49   6 C        2.916    -0.053    29.315     8.879
    50   6 C        2.912    -0.036    28.906     8.816
    51   1 H        0.924     0.065     2.144     2.290
    52   1 H        0.925     0.042     2.419     2.432
    53   1 H        0.926     0.056     2.241     2.341
    54   1 H        0.925     0.037     2.491     2.468
    55   1 H        0.925     0.033     2.541     2.493
    56   1 H        0.925     0.036     2.500     2.473
    57   1 H        0.925     0.041     2.441     2.443
    58   1 H        0.925     0.038     2.475     2.460
    59   1 H        0.925     0.041     2.441     2.443
    60   1 H        0.925     0.039     2.463     2.454
    61   1 H        0.925     0.034     2.523     2.484
    62   1 H        0.925     0.040     2.450     2.448
    63   1 H        0.925     0.037     2.487     2.466
    64   1 H        0.925     0.040     2.447     2.446
    65   1 H        0.925     0.039     2.456     2.451
    66   1 H        0.925     0.033     2.543     2.494
    67   1 H        0.925     0.036     2.501     2.473
    68   1 H        0.924     0.065     2.143     2.289
    69   1 H        0.924     0.042     2.423     2.434
    70   1 H        0.926     0.058     2.227     2.333
    71   1 H        0.925     0.037     2.493     2.469
    72   1 H        0.925     0.033     2.541     2.493
    73   1 H        0.925     0.036     2.503     2.474
    74   1 H        0.925     0.041     2.441     2.443
    75   1 H        0.925     0.038     2.476     2.461
    76   1 H        0.925     0.040     2.443     2.444
    77   1 H        0.925     0.039     2.462     2.454
    78   1 H        0.925     0.035     2.523     2.484
    79   1 H        0.925     0.041     2.442     2.444
    80   1 H        0.925     0.037     2.492     2.468
    81   1 H        0.925     0.041     2.430     2.438
    82   1 H        0.925     0.039     2.463     2.454
    83   1 H        0.925     0.033     2.547     2.496
    84   1 H        0.925     0.035     2.511     2.478

 Mol. C6AA /au·bohr⁶  :     112651.519271
 Mol. C8AA /au·bohr⁸  :    3127489.611496
 Mol. α(0) /au        :        544.278751


Wiberg/Mayer (AO) data.
largest (>0.10) Wiberg bond orders for each atom

 ---------------------------------------------------------------------------
     #   Z sym  total        # sym  WBO       # sym  WBO       # sym  WBO
 ---------------------------------------------------------------------------
     1  35 Br   1.136 --     2 C    0.976
     2   6 C    3.917 --     3 C    1.439    29 C    1.327     1 Br   0.976
     3   6 C    3.976 --     2 C    1.439     4 C    1.347    51 H    0.962
     4   6 C    3.951 --     3 C    1.347    26 C    1.330     5 C    1.106
     5   6 C    3.972 --     6 C    1.766     4 C    1.106    52 H    0.959
     6   6 C    3.949 --     5 C    1.766     7 C    1.095    53 H    0.949
     7   6 C    3.977 --    25 C    1.366     8 C    1.356     6 C    1.095
     8   6 C    3.978 --     9 C    1.481     7 C    1.356    54 H    0.968
     9   6 C    3.985 --     8 C    1.481    10 C    1.341    55 H    0.966
    10   6 C    3.958 --    24 C    1.350     9 C    1.341    11 N    1.090
    11   7 N    3.428 --    10 C    1.090    18 C    1.026    12 C    1.020
    12   6 C    3.967 --    13 C    1.388    17 C    1.386    11 N    1.020
                            15 C    0.103
    13   6 C    3.986 --    14 C    1.447    12 C    1.388    56 H    0.970
                            16 C    0.108
    14   6 C    3.990 --    13 C    1.447    15 C    1.435    57 H    0.970
                            17 C    0.109
    15   6 C    3.985 --    14 C    1.435    16 C    1.434    58 H    0.971
                            12 C    0.103
    16   6 C    3.990 --    17 C    1.447    15 C    1.434    59 H    0.970
                            13 C    0.108
    17   6 C    3.985 --    16 C    1.447    12 C    1.386    60 H    0.969
                            14 C    0.109
    18   6 C    3.967 --    23 C    1.389    19 C    1.382    11 N    1.026
                            21 C    0.102
    19   6 C    3.986 --    20 C    1.451    18 C    1.382    61 H    0.969
                            22 C    0.109
    20   6 C    3.990 --    19 C    1.451    21 C    1.434    62 H    0.970
                            23 C    0.108
    21   6 C    3.985 --    22 C    1.435    20 C    1.434    63 H    0.971
                            18 C    0.102
    22   6 C    3.990 --    23 C    1.445    21 C    1.435    64 H    0.970
                            19 C    0.109
    23   6 C    3.985 --    22 C    1.445    18 C    1.389    65 H    0.969
                            20 C    0.108
    24   6 C    3.984 --    25 C    1.467    10 C    1.350    66 H    0.967
    25   6 C    3.980 --    24 C    1.467     7 C    1.366    67 H    0.968
    26   6 C    3.917 --    28 C    1.436     4 C    1.330    27 Br   0.976
    27  35 Br   1.134 --    26 C    0.976
    28   6 C    3.976 --    26 C    1.436    29 C    1.350    68 H    0.962
    29   6 C    3.951 --    28 C    1.350     2 C    1.327    30 C    1.107
    30   6 C    3.973 --    31 C    1.770    29 C    1.107    69 H    0.959
    31   6 C    3.949 --    30 C    1.770    32 C    1.090    70 H    0.947
    32   6 C    3.977 --    50 C    1.368    33 C    1.357    31 C    1.090
    33   6 C    3.978 --    34 C    1.479    32 C    1.357    71 H    0.969
    34   6 C    3.985 --    33 C    1.479    35 C    1.342    72 H    0.966
    35   6 C    3.959 --    49 C    1.351    34 C    1.342    36 N    1.091
    36   7 N    3.428 --    35 C    1.091    43 C    1.025    37 C    1.020
    37   6 C    3.967 --    38 C    1.388    42 C    1.386    36 N    1.020
                            40 C    0.103
    38   6 C    3.986 --    39 C    1.447    37 C    1.388    73 H    0.969
                            41 C    0.108
    39   6 C    3.990 --    38 C    1.447    40 C    1.436    74 H    0.970
                            42 C    0.109
    40   6 C    3.985 --    39 C    1.436    41 C    1.434    75 H    0.971
                            37 C    0.103
    41   6 C    3.990 --    42 C    1.448    40 C    1.434    76 H    0.970
                            38 C    0.108
    42   6 C    3.985 --    41 C    1.448    37 C    1.386    77 H    0.969
                            39 C    0.109
    43   6 C    3.967 --    48 C    1.389    44 C    1.381    36 N    1.025
                            46 C    0.103
    44   6 C    3.986 --    45 C    1.453    43 C    1.381    78 H    0.969
                            47 C    0.109
    45   6 C    3.990 --    44 C    1.453    46 C    1.432    79 H    0.970
                            48 C    0.107
    46   6 C    3.985 --    47 C    1.435    45 C    1.432    80 H    0.971
                            43 C    0.103
    47   6 C    3.990 --    48 C    1.445    46 C    1.435    81 H    0.971
                            44 C    0.109
    48   6 C    3.985 --    47 C    1.445    43 C    1.389    82 H    0.969
                            45 C    0.107
    49   6 C    3.984 --    50 C    1.465    35 C    1.351    83 H    0.967
    50   6 C    3.980 --    49 C    1.465    32 C    1.368    84 H    0.968
    51   1 H    0.995 --     3 C    0.962
    52   1 H    0.998 --     5 C    0.959
    53   1 H    0.996 --     6 C    0.949
    54   1 H    0.998 --     8 C    0.968
    55   1 H    0.998 --     9 C    0.966
    56   1 H    0.999 --    13 C    0.970
    57   1 H    0.998 --    14 C    0.970
    58   1 H    0.998 --    15 C    0.971
    59   1 H    0.998 --    16 C    0.970
    60   1 H    0.998 --    17 C    0.969
    61   1 H    0.999 --    19 C    0.969
    62   1 H    0.998 --    20 C    0.970
    63   1 H    0.998 --    21 C    0.971
    64   1 H    0.998 --    22 C    0.970
    65   1 H    0.998 --    23 C    0.969
    66   1 H    0.998 --    24 C    0.967
    67   1 H    0.998 --    25 C    0.968
    68   1 H    0.995 --    28 C    0.962
    69   1 H    0.998 --    30 C    0.959
    70   1 H    0.996 --    31 C    0.947
    71   1 H    0.998 --    33 C    0.969
    72   1 H    0.998 --    34 C    0.966
    73   1 H    0.999 --    38 C    0.969
    74   1 H    0.998 --    39 C    0.970
    75   1 H    0.998 --    40 C    0.971
    76   1 H    0.998 --    41 C    0.970
    77   1 H    0.998 --    42 C    0.969
    78   1 H    0.999 --    44 C    0.969
    79   1 H    0.998 --    45 C    0.970
    80   1 H    0.998 --    46 C    0.971
    81   1 H    0.998 --    47 C    0.971
    82   1 H    0.998 --    48 C    0.969
    83   1 H    0.998 --    49 C    0.967
    84   1 H    0.998 --    50 C    0.968
 ---------------------------------------------------------------------------

Topologies differ in total number of bonds
Writing topology from bond orders to xtbtopo.mol

molecular dipole:
                 x           y           z       tot (Debye)
 q only:        0.018       0.033      -0.039
   full:        0.027       0.036      -0.035       0.145
molecular quadrupole (traceless):
                xx          xy          yy          xz          yz          zz
 q only:       -7.539      51.747      33.174      -0.832      -0.367     -25.635
  q+dip:      -20.475      55.931      38.498      -1.167      -0.233     -18.023
   full:      -18.408      54.247      36.907      -1.042      -0.315     -18.499


           -------------------------------------------------
          | TOTAL ENERGY             -129.797676328716 Eh   |
          | GRADIENT NORM               0.091497298413 Eh/α |
          | HOMO-LUMO GAP               1.734095088551 eV   |
           -------------------------------------------------
########################################################################
[WARNING] Runtime exception occurred
-2- restart_readRestart: Dimension missmatch in restart file.
-1- restart_readRestart: Number of electron missmatch in restart file.
########################################################################

------------------------------------------------------------------------
 * finished run on 2024/08/24 at 16:08:10.758     
------------------------------------------------------------------------
 total:
 * wall-time:     0 d,  0 h,  0 min,  0.565 sec
 *  cpu-time:     0 d,  0 h,  0 min,  8.975 sec
 * ratio c/w:    15.889 speedup
 SCF:
 * wall-time:     0 d,  0 h,  0 min,  0.548 sec
 *  cpu-time:     0 d,  0 h,  0 min,  8.770 sec
 * ratio c/w:    15.991 speedup

