70
 energy: -12.836364406492 gnorm: 0.000994945664 xtb: 6.5.0 (97a52f5)
C            2.68545548314831       -1.47845710663433        4.39477322220366
C            3.50530504607693       -0.72287493061188        3.41704149578099
C            3.93094593001960       -1.16106680295340        2.19375800447483
C            3.55758560694272       -2.44748514399179        1.56406114654874
C            4.74230596961056       -0.12239464333185        1.57911683263249
C            5.52193156176849       -0.21949202947564        0.39237362002983
C            5.62010005469624        0.75171747986692       -0.68562607522009
C            4.73298448347906        1.92135731017386       -0.87371051572087
C            6.62112007801527        0.36924613880740       -1.53478184478060
C            7.04272919256670        1.05703535963717       -2.77915887479868
C            7.19529678618164       -0.85921623380493       -1.02586037378004
N            6.49141409411598       -1.18104326482662        0.09674427567549
B            6.82712159677058       -2.45738745347975        0.89892957322495
F            5.87538270783792       -3.43153174378060        0.62857086697222
F            6.89101301491608       -2.15544662028128        2.25181959616647
N            8.18360434379882       -3.02553275703446        0.44526136456092
C            8.83681078768506       -4.04145596562931        1.00841881027356
C            8.43113172267351       -4.74992126031724        2.23629132795680
C            9.95149560340807       -4.32714596793484        0.16229070870998
C           10.97110603471267       -5.37898333349708        0.40012220102183
C            9.93506499880902       -3.43950658273648       -0.90288522030452
C           10.89720859659023       -3.38816013076947       -2.02979982580396
C            8.78649568598652       -2.60225483620084       -0.74006817023506
C            8.30733212152427       -1.55307922452402       -1.49022830146766
N            4.74280460230760        0.92512555636046        2.50344730057404
C            4.05099925098046        0.60139711064443        3.63313783583606
C            4.00019805829344        1.38172977692436        4.78290748211329
C            4.73854180616021        2.54197821073608        4.82174607864015
C            4.94516299610002        3.50314855285726        5.86118421919928
C            4.32706557925790        3.47666808825410        7.20857627969169
C            5.78994731184486        4.47985908481877        5.35593541206070
C            6.27415788932801        5.67428757905226        6.09172012765485
C            6.14234533596009        4.12771564233277        4.01733023195216
C            6.98303770042594        4.88985222832608        3.07575414414197
N            5.50634766633104        2.98881813298363        3.74541913681459
B            5.45448457942183        2.28959478730917        2.37528595338323
F            6.74955172160554        2.10042991359380        1.91431700416653
F            4.71836121449689        3.11137316055939        1.53288865689327
H            3.31883476754362       -1.94345907823672        5.15119883654737
H            2.11108135144721       -2.26625273050768        3.90674318798295
H            1.97897037806421       -0.82062182530526        4.90211965666815
H            4.00427234844226       -3.28435881353911        2.10138123581623
H            3.91075097268287       -2.49043601863223        0.53361322533188
H            2.47573150596425       -2.58205417434257        1.55120862981095
H            3.90590505602345        1.89773138730541       -0.16395635851417
H            4.31187352386011        1.94015572192149       -1.87912962005175
H            5.28003565477407        2.84999459135267       -0.70986203627841
H            6.63403199490568        2.06610390711222       -2.83309419202874
H            6.70274486681566        0.50867877517074       -3.65817531336033
H            8.12887977887990        1.13803655858743       -2.82939926246972
H            7.58351659253181       -4.24663733502898        2.70135298483211
H            9.24641481927105       -4.77703649552491        2.95945340836140
H            8.13286870895079       -5.77453651501552        2.01385472238614
H           10.62577983901386       -6.10365856659038        1.13762436885162
H           11.89950280398927       -4.94149460827102        0.76825073961623
H           11.19244466041146       -5.92178602204177       -0.51916843326393
H           11.88592321729761       -3.72483699956298       -1.71742274960436
H           10.56619397832158       -4.02519530156147       -2.85033922783151
H           10.99973999399257       -2.37190918599659       -2.41086019828373
H            8.81490929312980       -1.23985982137680       -2.38269766640638
H            3.44538946912300        1.05583404250644        5.64210795040410
H            4.11217457142576        2.45497236236515        7.52154341241986
H            3.39151947490501        4.03614959072888        7.21651361604819
H            4.99093829729750        3.91635359027705        7.95297390456982
H            7.10104817337250        5.41260297269655        6.75237482617108
H            5.47918803616444        6.10755606614739        6.69905070798220
H            6.62266337746833        6.44535315679287        5.40453776599280
H            7.94797235599920        5.13267631776431        3.52097192606279
H            6.49459625387363        5.81921173574494        2.78268528613569
H            7.16415667024904        4.30632463356822        2.17313095893590
