58
 energy: -11.368658955508 gnorm: 0.000644663949 xtb: 6.5.0 (97a52f5)
C            1.58486349025443        0.82665468476328       -2.47730529201380
C            2.45550686444962        1.85324620253538       -3.10343210699344
C            3.80946667776331        1.95724533695168       -2.73982218438811
C            4.57759349802999        1.38850953472936       -1.65493406668319
C            5.93980995986804        1.55231021691558       -1.97847385544618
C            7.03369895260795        1.00916260027868       -1.11457635044443
C            6.51715636812507       -0.13299680525839       -0.20671071117958
C            5.15734603682205        0.14599088963853        0.38791546429399
C            4.84274184057680       -0.29260218928316        1.66101707316985
C            3.62782746263968        0.01948403222931        2.24045954627509
C            2.71595714769118        0.79980540428307        1.55763465315243
C            3.00369539508292        1.24178240447790        0.28836366237618
C            4.20336148204469        0.88841591468485       -0.33960453850423
C            6.03856311301923        2.31097058345042       -3.14887653847765
C            7.26363919058787        2.77039283638669       -3.82731029877829
N            4.76877493420911        2.55741680193486       -3.55056905437864
B            4.41252915069883        3.49171640992695       -4.70890249619002
F            4.90283461952242        4.76203825393489       -4.42906592977010
F            4.93923790931173        2.99138076203021       -5.89279983012712
N            2.88319972649739        3.54148389275311       -4.81664082032429
C            2.25069609392672        4.41759333719260       -5.62951232893867
C            2.88789252546878        5.49323955403371       -6.41066845076627
C            0.88952289302464        4.12125666019086       -5.53880465607521
C            0.71119849541058        2.99725935136622       -4.70573306135782
C            2.01688089377469        2.66601046797563       -4.16326186652878
C           -0.63683369709905        2.46041427453302       -4.52707740632129
C           -0.89449376022377        1.11362241192329       -4.25047840778754
C           -2.18052917025437        0.64730572855979       -4.11260452492121
C           -3.24863751320098        1.50485910964064       -4.27961461571310
C           -3.02368126368439        2.82280999941018       -4.62489928905767
C           -1.73838686296531        3.31082708512018       -4.77561852952751
C           -1.51825047966721        4.72540300872941       -5.25181032394391
C           -0.26053129265742        4.86557577167000       -6.13755884680001
H            2.04752627386061        0.38112941958771       -1.60029602542362
H            1.42352595007152       -0.00280774264687       -3.16451463912456
H            0.62452276889288        1.24637347169435       -2.17739443980812
H            7.44125832848083        1.82155737184397       -0.50254329337163
H            7.85867519266268        0.66162491138578       -1.74788314646183
H            7.23220684845698       -0.32768265072932        0.60162627162538
H            6.46001371264348       -1.06424497810076       -0.78168517366660
H            5.56428907100562       -0.87505595506636        2.20784837148983
H            3.40141660260738       -0.32582089300129        3.23589110993225
H            1.78501385628125        1.07468422954759        2.02605567896123
H            2.32656876915083        1.91256618762651       -0.21123574348947
H            7.81808778777099        1.92833769112647       -4.24208477762922
H            7.91614889311014        3.30430563731513       -3.13617847195496
H            7.01184798441589        3.44543523769133       -4.64562932181280
H            3.96282672041987        5.32549536460596       -6.47963563291913
H            2.72812150044154        6.46232240373227       -5.93774615882221
H            2.48554562190508        5.53367099650986       -7.42305403499140
H           -0.07820162295888        0.41806314705860       -4.23749349555073
H           -2.35579177038492       -0.39301196648798       -3.89147348520376
H           -4.25689568482196        1.14008444237378       -4.17146577291168
H           -3.85755870782782        3.48194438022671       -4.79590176155335
H           -1.43183827491345        5.38033401752795       -4.37737720518416
H           -2.40690601342806        5.06872470860340       -5.79521355985088
H            0.01149579602465        5.91986451444446       -6.26762094804971
H           -0.45855028549383        4.47403152540392       -7.14161836208117
