      -----------------------------------------------------------      
     |                   =====================                   |     
     |                           x T B                           |     
     |                   =====================                   |     
     |                         S. Grimme                         |     
     |          Mulliken Center for Theoretical Chemistry        |     
     |                    University of Bonn                     |     
      -----------------------------------------------------------      

   * xtb version 6.5.0 (97a52f5) compiled by 'conda@d2599ee0d4f4' on 2022-05-15

   xtb is free software: you can redistribute it and/or modify it under
   the terms of the GNU Lesser General Public License as published by
   the Free Software Foundation, either version 3 of the License, or
   (at your option) any later version.
   
   xtb is distributed in the hope that it will be useful,
   but WITHOUT ANY WARRANTY; without even the implied warranty of
   MERCHANTABILITY or FITNESS FOR A PARTICULAR PURPOSE.  See the
   GNU Lesser General Public License for more details.
   
   Cite this work as:
   * C. Bannwarth, E. Caldeweyher, S. Ehlert, A. Hansen, P. Pracht,
     J. Seibert, S. Spicher, S. Grimme, WIREs Comput. Mol. Sci., 2020, 11,
     e01493. DOI: 10.1002/wcms.1493
   
   for GFN2-xTB:
   * C. Bannwarth, S. Ehlert and S. Grimme., J. Chem. Theory Comput., 2019,
     15, 1652-1671. DOI: 10.1021/acs.jctc.8b01176
   for GFN1-xTB:
   * S. Grimme, C. Bannwarth, P. Shushkov, J. Chem. Theory Comput., 2017,
     13, 1989-2009. DOI: 10.1021/acs.jctc.7b00118
   for GFN0-xTB:
   * P. Pracht, E. Caldeweyher, S. Ehlert, S. Grimme, ChemRxiv, 2019, preprint.
     DOI: 10.26434/chemrxiv.8326202.v1
   for GFN-FF:
   * S. Spicher and S. Grimme, Angew. Chem. Int. Ed., 2020, 59, 15665-15673.
     DOI: 10.1002/anie.202004239
   
   for ALPB and GBSA implicit solvation:
   * S. Ehlert, M. Stahn, S. Spicher, S. Grimme, J. Chem. Theory Comput.,
     2021, 17, 4250-4261. DOI: 10.1021/acs.jctc.1c00471
   
   for DFT-D4:
   * E. Caldeweyher, C. Bannwarth and S. Grimme, J. Chem. Phys., 2017,
     147, 034112. DOI: 10.1063/1.4993215
   * E. Caldeweyher, S. Ehlert, A. Hansen, H. Neugebauer, S. Spicher,
     C. Bannwarth and S. Grimme, J. Chem. Phys., 2019, 150, 154122.
     DOI: 10.1063/1.5090222
   * E. Caldeweyher, J.-M. Mewes, S. Ehlert and S. Grimme, Phys. Chem. Chem. Phys.
     2020, 22, 8499-8512. DOI: 10.1039/D0CP00502A
   
   for sTDA-xTB:
   * S. Grimme and C. Bannwarth, J. Chem. Phys., 2016, 145, 054103.
     DOI: 10.1063/1.4959605
   
   in the mass-spec context:
   * V. Asgeirsson, C. Bauer and S. Grimme, Chem. Sci., 2017, 8, 4879.
     DOI: 10.1039/c7sc00601b
   * J. Koopman and S. Grimme, ACS Omega 2019, 4, 12, 15120-15133.
     DOI: 10.1021/acsomega.9b02011
   
   for metadynamics refer to:
   * S. Grimme, J. Chem. Theory Comput., 2019, 155, 2847-2862
     DOI: 10.1021/acs.jctc.9b00143
   
   for SPH calculations refer to:
   * S. Spicher and S. Grimme, J. Chem. Theory Comput., 2021, 17, 1701-1714
     DOI: 10.1021/acs.jctc.0c01306
   
   with help from (in alphabetical order)
   P. Atkinson, C. Bannwarth, F. Bohle, G. Brandenburg, E. Caldeweyher
   M. Checinski, S. Dohm, S. Ehlert, S. Ehrlich, I. Gerasimov, C. Hölzer
   A. Katbashev, J. Koopman, C. Lavigne, S. Lehtola, F. März, M. Müller,
   F. Musil, H. Neugebauer, J. Pisarek, C. Plett, P. Pracht, F. Pultar,
   J. Seibert, P. Shushkov, S. Spicher, M. Stahn, M. Steiner, T. Strunk,
   J. Stückrath, T. Rose, and J. Unsleber
   
 * started run on 2024/08/24 at 17:40:47.728     

           -------------------------------------------------
          |                Calculation Setup                |
           -------------------------------------------------

          program call               : xtb 6037.xyz --chrg 0 --gbsa water
          coordinate file            : 6037.xyz
          omp threads                :                    16

   ID    Z sym.   atoms
    1    6 C      1, 2, 4, 6-18
    2   16 S      3
    3    7 N      5
    4    1 H      19-29

           -------------------------------------------------
          |                 G F N 2 - x T B                 |
           -------------------------------------------------

        Reference                      10.1021/acs.jctc.8b01176
      * Hamiltonian:
        H0-scaling (s, p, d)           1.850000    2.230000    2.230000
        zeta-weighting                 0.500000
      * Dispersion:
        s8                             2.700000
        a1                             0.520000
        a2                             5.000000
        s9                             5.000000
      * Repulsion:
        kExp                           1.500000    1.000000
        rExp                           1.000000
      * Coulomb:
        alpha                          2.000000
        third order                    shell-resolved
        anisotropic                    true
        a3                             3.000000
        a5                             4.000000
        cn-shift                       1.200000
        cn-exp                         4.000000
        max-rad                        5.000000

      * Solvation model:               GBSA
        Solvent                        water
        Parameter file                 internal GFN2-xTB/GBSA
        Dielectric constant                8.0200E+01
        Reference state                gsolv [1 M gas/solution]
        Free energy shift                  1.8574E-03 Eh       1.1656E+00 kcal/mol
        Temperature                        2.9815E+02 K
        Density                            1.0000E+00 kg/L
        Solvent mass                       1.8000E+01 g/mol
        Interaction kernel             Still
        Born radius scaling (c1)           1.5524E+00
        Born radii integrator          GBOBC
        Born offset                        2.4628E-02 a0       4.6540E-02 AA
        H-bond correction              true
        Ion screening                  false
        Surface tension                    1.0000E-05 Eh       1.5569E+01 dyn/cm
        Grid points                               230 per atom

          ...................................................
          :                      SETUP                      :
          :.................................................:
          :  # basis functions                  89          :
          :  # atomic orbitals                  88          :
          :  # shells                           48          :
          :  # electrons                        86          :
          :  max. iterations                   250          :
          :  Hamiltonian                  GFN2-xTB          :
          :  restarted?                      false          :
          :  GBSA solvation                   true          :
          :  PC potential                    false          :
          :  electronic temp.          300.0000000     K    :
          :  accuracy                    1.0000000          :
          :  -> integral cutoff          0.2500000E+02      :
          :  -> integral neglect         0.1000000E-07      :
          :  -> SCF convergence          0.1000000E-05 Eh   :
          :  -> wf. convergence          0.1000000E-03 e    :
          :  Broyden damping             0.4000000          :
          ...................................................

 iter      E             dE          RMSdq      gap      omega  full diag
   1    -46.7851868 -0.467852E+02  0.419E+00    2.70       0.0  T
   2    -46.8159500 -0.307632E-01  0.255E+00    3.03       1.0  T
   3    -46.8030583  0.128917E-01  0.113E+00    2.97       1.0  T
   4    -46.8236488 -0.205904E-01  0.309E-01    3.01       1.0  T
   5    -46.8247909 -0.114217E-02  0.116E-01    3.02       1.0  T
   6    -46.8248517 -0.607798E-04  0.610E-02    3.02       1.0  T
   7    -46.8249291 -0.773600E-04  0.182E-02    3.01       1.0  T
   8    -46.8249297 -0.601303E-06  0.894E-03    3.01       2.1  T
   9    -46.8249307 -0.104848E-05  0.364E-03    3.01       5.1  T
  10    -46.8249308 -0.418773E-07  0.168E-03    3.01      11.1  T
  11    -46.8249308 -0.313887E-07  0.875E-04    3.01      21.2  T
  12    -46.8249308 -0.554067E-09  0.389E-04    3.01      47.7  T

   *** convergence criteria satisfied after 12 iterations ***

         #    Occupation            Energy/Eh            Energy/eV
      -------------------------------------------------------------
         1        2.0000           -0.7379460             -20.0805
       ...           ...                  ...                  ...
        37        2.0000           -0.4205851             -11.4447
        38        2.0000           -0.4203892             -11.4394
        39        2.0000           -0.4034250             -10.9778
        40        2.0000           -0.4012112             -10.9175
        41        2.0000           -0.3965271             -10.7901
        42        2.0000           -0.3807002             -10.3594
        43        2.0000           -0.3624153              -9.8618 (HOMO)
        44                         -0.2516327              -6.8473 (LUMO)
        45                         -0.2471374              -6.7250
        46                         -0.2275948              -6.1932
        47                         -0.2076136              -5.6495
        48                         -0.1958186              -5.3285
       ...                                ...                  ...
        88                          0.7161545              19.4876
      -------------------------------------------------------------
                  HL-Gap            0.1107826 Eh            3.0145 eV
             Fermi-level           -0.3070240 Eh           -8.3545 eV

 SCC (total)                   0 d,  0 h,  0 min,  0.036 sec
 SCC setup                      ...        0 min,  0.000 sec (  0.659%)
 Dispersion                     ...        0 min,  0.000 sec (  1.050%)
 classical contributions        ...        0 min,  0.000 sec (  0.152%)
 integral evaluation            ...        0 min,  0.001 sec (  3.235%)
 iterations                     ...        0 min,  0.032 sec ( 88.151%)
 molecular gradient             ...        0 min,  0.002 sec (  5.919%)
 printout                       ...        0 min,  0.000 sec (  0.781%)

         :::::::::::::::::::::::::::::::::::::::::::::::::::::
         ::                     SUMMARY                     ::
         :::::::::::::::::::::::::::::::::::::::::::::::::::::
         :: total energy             -46.048001438840 Eh    ::
         :: total w/o Gsasa/hb       -46.043117821039 Eh    ::
         :: gradient norm              0.081581805452 Eh/a0 ::
         :: HOMO-LUMO gap              3.014546742716 eV    ::
         ::.................................................::
         :: SCC energy               -46.824930799530 Eh    ::
         :: -> isotropic ES            0.004421051604 Eh    ::
         :: -> anisotropic ES          0.005742626522 Eh    ::
         :: -> anisotropic XC          0.025821567659 Eh    ::
         :: -> dispersion             -0.036361784778 Eh    ::
         :: -> Gsolv                  -0.005281128288 Eh    ::
         ::    -> Gelec               -0.000397510487 Eh    ::
         ::    -> Gsasa               -0.006286699866 Eh    ::
         ::    -> Ghb                 -0.000454361062 Eh    ::
         ::    -> Gshift               0.001857443127 Eh    ::
         :: repulsion energy           0.776826652305 Eh    ::
         :: add. restraining           0.000000000000 Eh    ::
         :: total charge              -0.000000000000 e     ::
         :::::::::::::::::::::::::::::::::::::::::::::::::::::

           -------------------------------------------------
          |                Property Printout                |
           -------------------------------------------------

    * Orbital Energies and Occupations

         #    Occupation            Energy/Eh            Energy/eV
      -------------------------------------------------------------
         1        2.0000           -0.7379460             -20.0805
       ...           ...                  ...                  ...
        31        2.0000           -0.4668035             -12.7024
        32        2.0000           -0.4560283             -12.4092
        33        2.0000           -0.4470759             -12.1656
        34        2.0000           -0.4402253             -11.9791
        35        2.0000           -0.4362464             -11.8709
        36        2.0000           -0.4223203             -11.4919
        37        2.0000           -0.4205851             -11.4447
        38        2.0000           -0.4203892             -11.4394
        39        2.0000           -0.4034250             -10.9778
        40        2.0000           -0.4012112             -10.9175
        41        2.0000           -0.3965271             -10.7901
        42        2.0000           -0.3807002             -10.3594
        43        2.0000           -0.3624153              -9.8618 (HOMO)
        44                         -0.2516327              -6.8473 (LUMO)
        45                         -0.2471374              -6.7250
        46                         -0.2275948              -6.1932
        47                         -0.2076136              -5.6495
        48                         -0.1958186              -5.3285
        49                         -0.1880783              -5.1179
        50                         -0.1762146              -4.7950
        51                         -0.1195523              -3.2532
        52                         -0.0986520              -2.6845
        53                         -0.0656941              -1.7876
        54                         -0.0259841              -0.7071
       ...                                ...                  ...
        88                          0.7161545              19.4876
      -------------------------------------------------------------
                  HL-Gap            0.1107826 Eh            3.0145 eV
             Fermi-level           -0.3070240 Eh           -8.3545 eV

     #   Z          covCN         q      C6AA      α(0)
     1   6 C        3.101    -0.049    29.090     8.838
     2   6 C        2.931    -0.032    28.804     8.802
     3  16 S        2.320    -0.022   141.982    20.055
     4   6 C        2.936     0.073    26.375     8.423
     5   7 N        2.856    -0.058    22.354     7.022
     6   6 C        3.044     0.048    26.889     8.505
     7   6 C        2.907    -0.053    29.313     8.878
     8   6 C        2.912    -0.034    28.856     8.809
     9   6 C        2.908    -0.042    29.051     8.838
    10   6 C        2.912    -0.038    28.955     8.824
    11   6 C        3.068    -0.015    28.307     8.724
    12   6 C        3.072    -0.015    28.298     8.722
    13   6 C        2.912    -0.039    28.957     8.824
    14   6 C        2.908    -0.042    29.048     8.837
    15   6 C        2.911    -0.034    28.850     8.808
    16   6 C        2.907    -0.052    29.284     8.873
    17   6 C        3.040     0.048    26.875     8.503
    18   6 C        3.093    -0.066    29.523     8.906
    19   1 H        0.925     0.050     2.322     2.383
    20   1 H        0.926     0.057     2.235     2.338
    21   1 H        0.925     0.031     2.570     2.507
    22   1 H        0.925     0.036     2.501     2.473
    23   1 H        0.925     0.034     2.533     2.489
    24   1 H        0.925     0.033     2.539     2.492
    25   1 H        0.925     0.033     2.540     2.492
    26   1 H        0.925     0.034     2.534     2.489
    27   1 H        0.925     0.037     2.496     2.471
    28   1 H        0.925     0.032     2.561     2.502
    29   1 H        0.925     0.046     2.371     2.408

 Mol. C6AA /au·bohr⁶  :      14237.888710
 Mol. C8AA /au·bohr⁸  :     390550.593227
 Mol. α(0) /au        :        194.233087


Wiberg/Mayer (AO) data.
largest (>0.10) Wiberg bond orders for each atom

 ---------------------------------------------------------------------------
     #   Z sym  total        # sym  WBO       # sym  WBO       # sym  WBO
 ---------------------------------------------------------------------------
     1   6 C    3.985 --     2 C    1.614    18 C    1.284    19 H    0.965
     2   6 C    3.932 --     1 C    1.614     3 S    1.193    20 H    0.969
                             4 C    0.109
     3  16 S    2.648 --     2 C    1.193     4 C    1.168
     4   6 C    3.935 --    18 C    1.541     3 S    1.168     5 N    1.056
                             2 C    0.109
     5   7 N    3.556 --    17 C    1.108     6 C    1.106     4 C    1.056
     6   6 C    3.959 --     7 C    1.346    11 C    1.287     5 N    1.106
     7   6 C    3.985 --     8 C    1.468     6 C    1.346    21 H    0.969
                            10 C    0.118
     8   6 C    3.970 --     7 C    1.468     9 C    1.404    22 H    0.970
     9   6 C    3.980 --    10 C    1.474     8 C    1.404    23 H    0.971
    10   6 C    3.979 --     9 C    1.474    11 C    1.346    24 H    0.971
                             7 C    0.118
    11   6 C    3.983 --    10 C    1.346     6 C    1.287    12 C    1.147
    12   6 C    3.983 --    13 C    1.345    17 C    1.289    11 C    1.147
    13   6 C    3.979 --    14 C    1.475    12 C    1.345    25 H    0.971
                            16 C    0.118
    14   6 C    3.980 --    13 C    1.475    15 C    1.402    26 H    0.971
    15   6 C    3.969 --    16 C    1.470    14 C    1.402    27 H    0.970
    16   6 C    3.985 --    15 C    1.470    17 C    1.344    28 H    0.969
                            13 C    0.118
    17   6 C    3.959 --    16 C    1.344    12 C    1.289     5 N    1.108
    18   6 C    3.975 --     4 C    1.541     1 C    1.284    29 H    0.965
    19   1 H    0.997 --     1 C    0.965
    20   1 H    0.996 --     2 C    0.969
    21   1 H    0.999 --     7 C    0.969
    22   1 H    0.998 --     8 C    0.970
    23   1 H    0.998 --     9 C    0.971
    24   1 H    0.998 --    10 C    0.971
    25   1 H    0.998 --    13 C    0.971
    26   1 H    0.998 --    14 C    0.971
    27   1 H    0.998 --    15 C    0.970
    28   1 H    0.999 --    16 C    0.969
    29   1 H    0.998 --    18 C    0.965
 ---------------------------------------------------------------------------

Topologies differ in total number of bonds
Writing topology from bond orders to xtbtopo.mol

molecular dipole:
                 x           y           z       tot (Debye)
 q only:        0.172       0.382      -0.012
   full:        0.427       0.447       0.001       1.573
molecular quadrupole (traceless):
                xx          xy          yy          xz          yz          zz
 q only:       -0.107      -0.008      -0.416       1.645      -0.191       0.522
  q+dip:       -3.216       0.752       2.296       6.031      -0.981       0.920
   full:       -1.312      -0.098       0.283       2.770      -0.351       1.030


           -------------------------------------------------
          | TOTAL ENERGY              -46.048001438840 Eh   |
          | GRADIENT NORM               0.081581805452 Eh/α |
          | HOMO-LUMO GAP               3.014546742716 eV   |
           -------------------------------------------------
########################################################################
[WARNING] Runtime exception occurred
-2- restart_readRestart: Dimension missmatch in restart file.
-1- restart_readRestart: Number of electron missmatch in restart file.
########################################################################

------------------------------------------------------------------------
 * finished run on 2024/08/24 at 17:40:47.773     
------------------------------------------------------------------------
 total:
 * wall-time:     0 d,  0 h,  0 min,  0.045 sec
 *  cpu-time:     0 d,  0 h,  0 min,  0.687 sec
 * ratio c/w:    15.113 speedup
 SCF:
 * wall-time:     0 d,  0 h,  0 min,  0.036 sec
 *  cpu-time:     0 d,  0 h,  0 min,  0.575 sec
 * ratio c/w:    15.967 speedup

