49
 energy: -1.247759771551 gnorm: 1.856905214045 xtb: 6.5.0 (97a52f5)
O            1.02676000000000       -0.25489000000000        0.04356000000000
N            2.24769000000000       -0.04421000000000        0.00999000000000
O            2.86721000000000        0.39860000000000       -0.96684000000000
C            3.01418000000000       -0.33612000000000        1.21940000000000
C            4.15653000000000        0.41928000000000        1.50881000000000
C            4.89169000000000        0.13692000000000        2.66626000000000
C            4.49926000000000       -0.90475000000000        3.52077000000000
C            5.27608000000000       -1.24225000000000        4.70911000000000
N            5.76864000000000       -2.42825000000000        4.99606000000000
C            6.35977000000000       -2.30109000000000        6.22970000000000
C            6.95312000000000       -3.43713000000000        6.85226000000000
C            7.15219000000000       -4.65386000000000        6.31942000000000
C            7.79309000000000       -5.73561000000000        7.08711000000000
C            8.64097000000000       -6.63529000000000        6.43160000000000
C            9.25097000000000       -7.67809000000000        7.13632000000000
C            9.01754000000000       -7.83399000000000        8.50225000000000
C            8.17612000000000       -6.94859000000000        9.16699000000000
C            7.56190000000000       -5.91218000000000        8.46187000000000
C            6.21287000000000       -1.02011000000000        6.73651000000000
C            6.49698000000000       -0.29821000000000        7.93881000000000
C            7.31599000000000       -0.78956000000000        8.87942000000000
C            7.58895000000000       -0.27947000000000       10.23487000000000
C            8.77763000000000       -0.70303000000000       10.85513000000000
C            9.03835000000000       -0.40472000000000       12.19196000000000
C            8.11131000000000        0.32329000000000       12.93045000000000
C            6.92845000000000        0.75349000000000       12.32877000000000
C            6.66399000000000        0.45006000000000       10.98806000000000
N            5.54864000000000       -0.35654000000000        5.72688000000000
C            3.35629000000000       -1.65817000000000        3.20573000000000
C            2.60218000000000       -1.37155000000000        2.06404000000000
H            4.48644000000000        1.21488000000000        0.84355000000000
H            5.79411000000000        0.70955000000000        2.87486000000000
H            7.28507000000000       -3.30959000000000        7.86929000000000
H            6.86310000000000       -4.86594000000000        5.29368000000000
H            8.84429000000000       -6.52469000000000        5.36909000000000
H            9.90895000000000       -8.37001000000000        6.61626000000000
H            9.48803000000000       -8.64935000000000        9.04632000000000
H            7.98948000000000       -7.06537000000000       10.23091000000000
H            6.89519000000000       -5.24562000000000        9.00418000000000
H            5.99730000000000        0.65389000000000        8.10860000000000
H            7.86856000000000       -1.69784000000000        8.69553000000000
H            9.50325000000000       -1.29943000000000       10.30482000000000
H            9.95514000000000       -0.75849000000000       12.65652000000000
H            8.30439000000000        0.54123000000000       13.97755000000000
H            6.19803000000000        1.30555000000000       12.91502000000000
H            5.71244000000000        0.75490000000000       10.56173000000000
H            5.24790000000000        0.60680000000000        5.74396000000000
H            3.05629000000000       -2.48001000000000        3.85529000000000
H            1.71935000000000       -1.96674000000000        1.84030000000000
