72
 energy: -16.557044635116 gnorm: 0.000557540105 xtb: 6.5.0 (97a52f5)
N            5.29459601882368        1.38399573422029       -3.21198048800345
C            4.76853408913847        0.90264710144140       -2.29559910567468
C            4.13631883281443        0.29966715457715       -1.19677657012247
C            4.31939039312365        0.79021153284191        0.08920830069656
C            3.71002294278797        0.17724313905358        1.16196566522564
C            2.91583631238953       -0.93158779955802        0.96773404270703
C            2.70824254415874       -1.44511390644043       -0.31016339120600
C            1.88449771766018       -2.65465300838296       -0.52551363182983
C            0.78142622853670       -2.94240470168946        0.27644082669660
C            0.04693081914487       -4.09319766179923        0.08049274501207
C            0.39386214411607       -4.97690290874070       -0.91671802264602
C            1.48018775351494       -4.71114096091734       -1.74206977585634
C            1.87308342339915       -5.63558774917091       -2.81450491250687
N            2.74398117038068       -5.18442206605704       -3.70054192722678
C            3.08624344936800       -6.05691829375612       -4.63223271058016
C            4.04742618625868       -5.60202584940525       -5.64679838187549
C            4.67209909895337       -6.50384832323142       -6.50025461840576
C            5.57833418276415       -6.06098141706669       -7.43684377052024
C            5.86572727928669       -4.71668308075022       -7.54329198831624
C            5.24568272790493       -3.78452616671469       -6.71245806258642
C            5.51861345647413       -2.33631160702267       -6.84416468501616
C            5.47604575150836       -1.49124750716380       -5.73796342544683
C            5.71031616329158       -0.14101117162248       -5.87296280948414
C            6.00063150122589        0.39393836756144       -7.10694772723256
C            6.05340377103144       -0.42081772459307       -8.22959228946420
C            6.34625487025949        0.11325414006372       -9.49497747579183
N            6.58972340103526        0.54767554917053      -10.54405311073083
C            5.80620095115962       -1.77726854453223       -8.08516556566953
C            4.34394541242860       -4.25138335395227       -5.76510802157518
N            2.63785682455821       -7.29716790248597       -4.72001918999032
C            1.76635767140419       -7.63421891304891       -3.78446722258024
C            1.22620424344974       -8.99987356474297       -3.81986791132020
C            1.54304999855190       -9.87126269309009       -4.85583815431686
C            1.03516153748878      -11.15093850185679       -4.87087521603073
C            0.20969367088903      -11.58144576350521       -3.85405428937483
C           -0.12443496810682      -10.73243499892095       -2.80108597155845
C           -0.99872875970403      -11.18548639923827       -1.69709655266007
C           -1.98538770431621      -10.35066591572708       -1.17938929807363
C           -2.79078314111440      -10.77150568300896       -0.14430967335827
C           -2.62686163767324      -12.02930937025954        0.39373212356769
C           -1.65069308639601      -12.88461762330658       -0.10055863829604
C           -1.47577598358897      -14.16653877420684        0.44551110718308
N           -1.32874750489804      -15.22758127970964        0.89408515258626
C           -0.84580118643802      -12.45152103639112       -1.14288714783473
C            0.39187631297474       -9.44390491890582       -2.80425038264968
N            1.34311876368748       -6.84591140819942       -2.81060799516251
C            2.21096127123488       -3.55071863289880       -1.53423058977892
C            3.32716315907320       -0.81046898142492       -1.38205877909518
H            4.94735092803462        1.65264770328226        0.23467553847637
H            3.86190741887644        0.56220005414553        2.15688334769304
H            2.46392403908154       -1.42206428090950        1.81198673940422
H            0.49815875336226       -2.25012075736030        1.04974468465574
H           -0.80161745382335       -4.30238498703550        0.71079220290504
H           -0.16944058650546       -5.87989549222621       -1.07483616439682
H            4.43869744921515       -7.55032588758437       -6.40986015903035
H            6.06472872762879       -6.76766505547704       -8.08887530350790
H            6.58555077557799       -4.37926751821027       -8.26826397183971
H            5.26698385080595       -1.90201402739507       -4.76573994839193
H            5.65430077030425        0.50313567499590       -5.01097223578574
H            6.18616461270864        1.44916502438013       -7.21615043060784
H            5.82415160892146       -2.40064190288543       -8.96069279069766
H            3.84340394170293       -3.55884850196374       -5.11404435243233
H            2.19060354054049       -9.52614666490921       -5.64274459120144
H            1.28389668627776      -11.81780050450242       -5.67986474992297
H           -0.19348766515672      -12.57907320530735       -3.87131719944929
H           -2.12090123951758       -9.37189758401195       -1.60574280545552
H           -3.55202716439384      -10.11603501257875        0.24549149185723
H           -3.25219861812101      -12.36417945905926        1.20377256023716
H           -0.08076507844085      -13.10732316941255       -1.51786590031049
H            0.15695050080947       -8.77305832464358       -1.99864490193064
H            3.06082414457477       -3.36278798654390       -2.16394094985895
H            3.17552198347953       -1.17846469031806       -2.38061059419054
