142
 energy: -28.162059535759 gnorm: 0.000626847535 xtb: 6.5.0 (97a52f5)
C            1.73192665424552        0.55283680481176        0.01430629248380
C            3.21980576027579        0.36058731514530        0.36021316456044
C            4.06499765615892        0.42016471459609       -0.92611141761014
C            3.65863232447524        1.51448453439479        1.28247249510906
C            3.41050362038992       -1.00864562141674        1.03005337302831
C            3.09374116947401       -2.16565313847639        0.32921015944358
C            3.25328224960861       -3.41009904147789        0.89443374449380
C            3.74171357593980       -3.54680802265270        2.19204707167118
C            3.92345294965774       -4.88842922402958        2.79876696977718
C            4.76957541523198       -5.84257408129198        2.18782772478453
C            5.54711557509439       -5.52731231704860        0.96838118212882
C            5.57642258450048       -6.41678966077063       -0.10833973893977
C            6.28295738504884       -6.12160669719345       -1.24761649992731
C            6.99274958222079       -4.92663705592978       -1.36154756782348
N            7.71095340376995       -4.61181696450856       -2.55688950688139
C            7.24681785091541       -5.09431074865358       -3.82777119499489
C            8.14986713745715       -5.53491662404153       -4.79194322123356
C            7.70633368010028       -5.99492437439390       -6.01146244992368
C            6.35371580877008       -6.02152374435684       -6.29135542632346
C            5.44557938216746       -5.58409363105832       -5.34658164479775
C            5.88677992589971       -5.12344908252372       -4.12646686359368
C            8.89057914636160       -3.79445542651105       -2.50312916393670
C            9.14364730099535       -2.84971832443903       -3.49457612059515
C           10.27378815863669       -2.06491420345748       -3.44553392512984
C           11.17287617292638       -2.20995110589188       -2.40676402668799
C           10.93796990273306       -3.14539467754791       -1.41757943353463
C            9.80873692267727       -3.93175443188064       -1.46497349581281
C            6.97647501530760       -4.04320033330021       -0.28322529640131
C            6.27439545138576       -4.33928634944517        0.85781473767097
C            4.87617925080998       -7.10555604061692        2.75408039392651
C            4.19655032550630       -7.46814959813012        3.90912044627862
C            4.34011496350568       -8.84614140581235        4.42952764487672
C            5.59769131845978       -9.44859599734177        4.51367926354321
C            5.73695629740058      -10.72588928304592        4.99683113208904
C            4.62728993405841      -11.45844084419146        5.41688252288700
N            4.77385301699251      -12.78643249014922        5.92529769400435
C            5.97978724834163      -13.17516505225639        6.60157322743630
C            6.52962655190662      -14.43852295702912        6.39919126804575
C            7.68766365252173      -14.81195586047318        7.04304950869786
C            8.31663325915137      -13.93188928742807        7.90218723573083
C            7.78105004374755      -12.67663579044086        8.11704258986955
C            6.62277770579435      -12.30124940866505        7.47462956312169
C            3.72195404220787      -13.74918982981957        5.75382583321484
C            3.41076594853742      -14.64774315366623        6.77112850033664
C            2.40481621480450      -15.57330175681208        6.60773812576289
C            1.69269357017766      -15.61982934912099        5.42490448964311
C            1.99198213145423      -14.73767884448047        4.40481318418640
C            2.99777471289626      -13.81161488690164        4.56594966750575
C            3.37006399486597      -10.86305472432563        5.32573475837512
C            3.22890688167811       -9.58862673420532        4.83742215485653
C            3.37417682923088       -6.51078434246371        4.54698474770922
C            2.66806508651408       -6.84328721310319        5.80891259732794
C            3.37459283899576       -7.24757331680469        6.93960613367091
C            2.71729784211234       -7.54930423376052        8.11043539066334
C            1.33450041752079       -7.45499350358931        8.20716180614758
C            0.64021183761986       -7.80103870431833        9.53306397787144
C            0.92180065514128       -9.27407308669291        9.88217552167978
C            1.18525428336048       -6.88864966144859       10.64758988030117
C           -0.88565820409941       -7.60246045671357        9.44834634936653
C            0.63018635018918       -7.05168788538833        7.07863521895486
C            1.28051016208984       -6.75399047816180        5.90262729424965
C            3.23585769893137       -5.22520971967486        3.98295648594792
C            2.35518362975217       -4.22498462121639        4.63823926008111
C            2.61317435293814       -3.78326760781519        5.93310196439003
C            1.77724259197896       -2.87930030048617        6.54816124269750
C            0.65775224671005       -2.37437674683599        5.89895640541902
C           -0.25994623982835       -1.38222555546824        6.62918452076221
C           -0.83835214115407       -2.05970261002348        7.88544249425115
C            0.55288489252302       -0.13921687157305        7.03581404979001
C           -1.43175395350657       -0.92520797307053        5.73881819485988
C            0.40724520235148       -2.80886334847619        4.60256130484405
C            1.23630694892020       -3.71708843075198        3.98335302571177
C            4.05578732966060       -2.38733816338702        2.89822360910017
C            3.89133314090142       -1.14559886344656        2.32725048700736
H            1.56115871093124        1.52515296312972       -0.44746448061958
H            1.11741903041357        0.49249502988434        0.91246539146692
H            1.38495289409047       -0.21151695528252       -0.68000110385982
H            3.96961880762043        1.39155742816870       -1.41084419946458
H            3.75394428540136       -0.33989348346642       -1.64162735890313
H            5.11888374095271        0.25656979185536       -0.70183705907153
H            3.52518033915976        2.47643630641711        0.78782737364538
H            4.71144226248034        1.42447523155090        1.54917006881120
H            3.06894963153455        1.53105798965032        2.19879203676996
H            2.71722839472426       -2.08762329985540       -0.67591548804631
H            3.00675605609755       -4.29688011847846        0.33597821197911
H            5.02110747487164       -7.33645468889492       -0.04043683584751
H            6.30268805769425       -6.81703223814986       -2.06840253585244
H            9.20148293232389       -5.51722920923792       -4.56440237040103
H            8.41541207896337       -6.33572024493218       -6.74827117321465
H            6.00738775622852       -6.38241615967401       -7.24611822024718
H            4.39030224709298       -5.60187505609889       -5.56540072546681
H            5.18597496908525       -4.76867590623251       -3.39081551758997
H            8.43562424747664       -2.73751246715651       -4.29709034145322
H           10.45665245449086       -1.33594215312328       -4.21823738710547
H           12.05712195870267       -1.59476169503091       -2.36865175741016
H           11.64053593823586       -3.26135037486726       -0.60841790791836
H            9.62670311721933       -4.67163884769749       -0.70501926578012
H            7.51052797231343       -3.11276444966004       -0.36475295699376
H            6.27168152712197       -3.64842032981789        1.68281776690738
H            5.50898006822109       -7.83245721772889        2.27764304387606
H            6.46518164072036       -8.89076637858412        4.20554163132876
H            6.70981361143910      -11.18262857130287        5.04705139232730
H            6.03856823498674      -15.11587623411502        5.72255520830457
H            8.10482925397418      -15.79152123690559        6.87494878816222
H            9.22412638426505      -14.22446193145688        8.40458508562128
H            8.26991642597819      -11.99045325053629        8.78919620992503
H            6.19319537424730      -11.32969486927182        7.64685707921130
H            3.96572019964736      -14.60163574635362        7.69184931160598
H            2.17229243164186      -16.26180816172550        7.40373726230711
H            0.90523801820399      -16.34459249618066        5.29775232627756
H            1.43909391216378      -14.77539600082990        3.48041951147667
H            3.24529303575386      -13.13071006352099        3.77025399266800
H            2.50795285698441      -11.41420350551600        5.65823585678477
H            2.25148196379086       -9.14395046892651        4.76856019539304
H            4.44685878437548       -7.32460300831820        6.88226734274465
H            3.28589245280705       -7.86632174897698        8.96737341988944
H            1.98906361824763       -9.45513099824800       10.00376209703996
H            0.55933913865680       -9.93252643696670        9.09300877943683
H            0.42754805189786       -9.55637621806036       10.81154598344536
H            2.25536994773444       -7.03255626401622       10.79083710362760
H            0.69198893485167       -7.09571990669861       11.59710893356013
H            1.01825417166247       -5.83997640054211       10.40220596809454
H           -1.32432722746046       -8.24901114328949        8.68867202140156
H           -1.13364882006764       -6.56835973671964        9.20965272708103
H           -1.36016485159695       -7.84389519668118       10.39938955005993
H           -0.44127812973859       -6.96740970385925        7.11580969420855
H            0.72101219642585       -6.44273782573501        5.03718529271748
H            3.47325896246881       -4.16962641823963        6.45256183265599
H            1.99182041738208       -2.56297696509357        7.55415451355258
H           -0.04873235296009       -2.35599201083526        8.57490236059021
H           -1.39931747843248       -2.95447881877913        7.61620905294910
H           -1.51040042434882       -1.38668796313424        8.41752346778494
H            1.36282188596992       -0.39954707653613        7.71597885165658
H           -0.07959368495701        0.59341681061959        7.53679557441579
H            0.99172146675345        0.33704561008489        6.15927268357312
H           -2.05362155754930       -1.77011142078287        5.44385326270864
H           -1.06975209451592       -0.42980136628798        4.83814244626652
H           -2.06828356502820       -0.21808775707051        6.27055314129251
H           -0.44882298810670       -2.43778616808218        4.06778380845434
H            1.02661376112030       -4.04920756415036        2.98102655830718
H            4.43222732110205       -2.47759391780331        3.90275079109917
H            4.14327514008464       -0.27190281315049        2.90146059356533
