80
 energy: -17.635966700124 gnorm: 0.000869914936 xtb: 6.5.0 (97a52f5)
C           -0.59842209373937        1.44710293373189        2.29973573139932
C           -1.67646332452629        1.21711052205140        3.12296438759378
N           -2.02378257696637        0.02847526176019        3.58576513905083
C           -1.25968516587853       -0.97843220913679        3.20671955551418
C           -0.14696890472226       -0.87702391160877        2.37825983605968
C            0.64495792001314       -2.06907618546790        2.00582939454029
C            0.02290264658454       -3.29067032132537        1.74816221694385
C            0.75708660966919       -4.39769812507402        1.40236668003416
C            2.15034796572780       -4.33419156495824        1.30015464440584
C            2.94459357009905       -5.53490242109922        0.94173204757725
C            3.74006907135856       -5.55188989118152       -0.23001191123183
C            3.77408628434468       -4.44527628682596       -1.11526712180479
C            4.51286156531656       -4.47053935978593       -2.25431833643060
C            5.26705372980341       -5.61314591667457       -2.60244296200878
C            6.10087309966124       -5.63263085136468       -3.81742070195952
C            7.02520914658495       -4.63391289438694       -4.07569219982129
C            7.77235912344473       -4.72100213507712       -5.22150267315107
C            7.57646993088742       -5.79084375001764       -6.06429098101911
N            6.70532901485827       -6.76284557874761       -5.85209779197208
C            5.99574198268927       -6.66282996652143       -4.74403619870869
C            5.24736631715707       -6.69773067225258       -1.76283380515312
C            4.49851832698920       -6.70923690159462       -0.56665504087545
C            4.46371935426472       -7.86173308162143        0.26301061216294
C            5.25917235032400       -9.06179889912082       -0.09626931741289
C            6.65398801241297       -9.00084266936826       -0.17681400252899
C            7.39025733868973      -10.10395996819789       -0.53026501084666
C            6.76903272566197      -11.31901544377204       -0.81869077830097
C            7.56432392676204      -12.50453611442802       -1.20467159826781
C            7.13179252738621      -13.38132260308348       -2.18766752797001
C            7.92334093055117      -14.45624370935587       -2.49854498705799
C            9.11165916805829      -14.62526315741608       -1.82644794104251
N            9.55940391490669      -13.81459107928639       -0.88302838665426
C            8.78416129404561      -12.78538431187331       -0.59828040205091
C            5.37804591593852      -11.38350216450109       -0.73730440188870
C            4.63886464006877      -10.28157847528418       -0.38451997210217
C            3.66082671774043       -7.84813571109921        1.42984337327382
C            3.60502431870914       -8.96197181635775        2.30415676422659
C            2.85495695189824       -8.93915251127413        3.43626314607469
C            2.10838651460478       -7.79330219181430        3.79297870261933
C            1.29501463393957       -7.76310735280161        5.02710496689850
C            0.08916026188375       -7.08090521601782        5.08141746206427
C           -0.61367954324653       -7.08851823447721        6.25790801747574
C           -0.09961605726351       -7.77025157843446        7.33616743368607
N            1.04490553317376       -8.43158808387380        7.32658100561753
C            1.70809267569537       -8.41158098305287        6.18566709959912
C            2.15572670361761       -6.70044647715890        2.96310735634283
C            2.90882736544251       -6.68796446950592        1.77015536531702
C            2.77130381467724       -3.10809665279730        1.55807632061981
C            2.03416115999670       -2.00196540494683        1.90135857321403
C            0.18305601722391        0.38812824841248        1.91717548371689
H           -0.37378183499045        2.44418453500220        1.95832690299496
H           -2.29642209653452        2.04710256012293        3.42651973711658
H           -1.52692867914804       -1.94933398356703        3.59093601816287
H           -1.04978567339647       -3.35409823375190        1.80665466796512
H            0.26364133252964       -5.33129392401324        1.19316946196348
H            3.18896730746152       -3.57452126637508       -0.87943180844632
H            4.52387000773097       -3.62185562416561       -2.91614752303209
H            7.15072944932436       -3.81930587229469       -3.38320282910137
H            8.50403749760771       -3.96553407354531       -5.45619807022797
H            8.16250245194795       -5.86499676246657       -6.96784293515834
H            5.28000594678384       -7.44724229948242       -4.55790951822897
H            5.81170223639067       -7.56951641094176       -2.03644574632697
H            7.14598616888089       -8.07004549124716        0.04758710275683
H            8.46170416612931      -10.03433916316742       -0.60311549566915
H            6.20248332227854      -13.20636686799061       -2.70182533865703
H            7.62141247294936      -15.15607979414825       -3.26031150390902
H            9.74037682471416      -15.46896949171608       -2.06803815640594
H            9.13445594164626      -12.12600038301371        0.17900108748739
H            4.88545141057857      -12.31721490056959       -0.94626196584229
H            3.56509428407924      -10.34115143033235       -0.33795945145953
H            4.17821129185677       -9.83919518826241        2.06296585887292
H            2.81474104995009       -9.80507173240630        4.07380799317783
H           -0.28761740034160       -6.56949879876743        4.21253573764742
H           -1.55529263376656       -6.57036444026612        6.33622100347408
H           -0.64917954448403       -7.78126016883304        8.26530494168248
H            2.65072978552746       -8.93359039927432        6.17406143998311
H            1.61825799985434       -5.81502789379768        3.24548288951554
H            3.84429696559443       -3.04761091241439        1.49742383827789
H            2.52977707786414       -1.06997724354300        2.11043883139708
H            1.02636946451029        0.52613599316319        1.26257556420505
