101
 energy: -20.167080192175 gnorm: 0.000709385139 xtb: 6.5.0 (97a52f5)
C            2.25119873260575       -2.57539535083169       -0.07684054815395
C            3.41284478290233       -1.62156599135585        0.25593187152051
C            4.67601996160144       -2.05564879049096       -0.51098745408448
C            3.02888414656319       -0.20359915914373       -0.20928185408907
C            3.69040950540230       -1.67286248083047        1.76617917788391
C            3.52311900684870       -0.54955631279948        2.59690671157944
C            3.76469329733975       -0.59694262717826        3.94767496177398
C            4.19679629028906       -1.79230604880502        4.52196719947331
C            4.34563229454688       -2.92532114971073        3.70917522790744
C            4.09518524525683       -2.86280262927689        2.33843110331349
C            4.71731674520921       -4.01830481748291        4.56713378177517
C            4.94940658373277       -5.36901956132877        4.30244143085832
C            5.23309828999824       -6.23255711236116        5.34149640998272
C            5.47120966938930       -7.72203181362370        5.05327927098274
C            4.20716450131913       -8.32232309191484        4.41208524503589
C            6.66480371562214       -7.86932515659087        4.09252438454951
C            5.78285039593263       -8.51053871774325        6.34017690941152
C            5.27459211710230       -5.71509021198140        6.64508685543574
C            5.06320423364234       -4.38710694154651        6.91693691372901
C            4.78266881402956       -3.51562148283707        5.87622545164539
N            4.50169400714268       -2.13399674943713        5.86204698871857
C            4.52168488044354       -1.16718361271992        6.93280214458074
C            4.98555220564080        0.10850049734187        6.64244757300703
C            4.71595804985522        1.16971596921803        7.47354450120271
C            3.94701274713660        0.97577101192783        8.60085185839309
C            3.52012622818821       -0.28897931994961        8.97402515349309
C            3.89443739574638       -1.39450075027033        8.19152778988228
O            3.70961052654095       -2.70077875351211        8.63846628685289
C            3.08013585932810       -2.92861053827033        9.85971078623766
C            3.10140493830624       -4.23532555567597       10.42095464550508
C            4.11426031065699       -5.23284556234546       10.02432965913941
N            3.76287766801944       -6.50864388589928       10.04017595136623
C            4.74360080384704       -7.35620601116724        9.77512736821117
C            4.40776570727600       -8.78591465037469        9.73495727868809
C            5.39974555597023       -9.74354917220198        9.54611081845813
C            5.08046200380524      -11.08152361055759        9.48341292454392
C            3.76566902105801      -11.48530465214783        9.61017889590009
C            2.77041294200898      -10.54646959002651        9.80024173857593
C            3.08805232240536       -9.20792498479022        9.86184679675804
N            5.99809329339972       -7.02179569134683        9.51833899284283
C            6.24097837478555       -5.72240226806712        9.55782822909341
C            7.59516651486704       -5.26855336623189        9.21619864586691
C            7.88767569102424       -3.90900197661377        9.16311013497772
C            9.14292952553272       -3.47553436045930        8.80023783100627
C           10.12530194479565       -4.39311512934960        8.48234357502661
C            9.84830677844856       -5.74580894719086        8.52807908728099
C            8.59346652271247       -6.18133783970860        8.89148313288131
N            5.33856902969786       -4.78662250976167        9.79740856469949
C            2.25503130178563       -4.53572789501748       11.48172584779942
C            1.47340035735328       -3.56201069929751       12.05272530088853
C            1.56568954493644       -2.25843306371321       11.60446205092657
C            2.37772129305527       -1.91679468309860       10.53621198240101
C            2.56931474212897       -0.44783178892176       10.16296324240291
C            3.15234302070157        0.28887310761318       11.38666089579492
C            1.20716242849748        0.15729228754099        9.77628560747577
H            2.01790843946111       -2.55021898606369       -1.14093014455388
H            1.35334688996568       -2.29399179286082        0.47264929260838
H            2.49617503669557       -3.60334625230843        0.18700634465611
H            4.51475817578425       -2.00593049241760       -1.58751413681803
H            4.95849329383181       -3.07821102078444       -0.26486467645282
H            5.51683650922837       -1.40761723035445       -0.26538683977697
H            2.85634817460163       -0.18360438242009       -1.28511114800101
H            3.82313259096035        0.50928993536029        0.01039708327389
H            2.11383298959154        0.13508280249930        0.27557441624599
H            3.18905228716353        0.37802508396186        2.16773344208302
H            3.59902330599062        0.26520499668272        4.56769304060097
H            4.21111644902439       -3.74894997786074        1.74263535736220
H            4.89150205623870       -5.72499498748905        3.29067898947079
H            3.96747153015725       -7.82803119800627        3.47166579309169
H            3.35065239939997       -8.21077242120358        5.07641875561793
H            4.34018674550615       -9.38421707276968        4.20723952291400
H            6.47108624993150       -7.37537735665693        3.14139565561354
H            6.87228175163759       -8.91901944925814        3.88652779788438
H            7.56182233070842       -7.42594835995962        4.52398301333852
H            4.94789015245951       -8.46308654337442        7.03806836028598
H            6.67092666190016       -8.11987347729526        6.83592187317516
H            5.96449328524465       -9.56154660032766        6.11744249649153
H            5.45643511171345       -6.38498605792541        7.46232657521877
H            5.04833298993416       -4.00844318798751        7.92053541855490
H            5.53703188452121        0.26388945805766        5.73091594403941
H            5.06246460447207        2.15790789404597        7.21863960667428
H            3.66808857604717        1.82631373464268        9.19769316259512
H            6.42054750776435       -9.41767342538108        9.44806200242046
H            5.85713081870203      -11.81401720065220        9.33536863819452
H            3.51623190140115      -12.53269634891442        9.56167352322496
H            1.74421220087660      -10.86110818653668        9.89802255387646
H            2.32058606192251       -8.46672075296532       10.00187264936186
H            7.10900003365278       -3.20418654319046        9.39860787596596
H            9.35828857891391       -2.42018965721415        8.76163297372308
H           11.10776654974341       -4.05392194262602        8.19726287944286
H           10.61414707635494       -6.46115467731475        8.27629125046608
H            8.36455137369226       -7.23213820857008        8.92490043142720
H            2.26020370099553       -5.53661549011601       11.87828660288407
H            0.82928478321639       -3.80413015212276       12.88209315886227
H            1.00101157937763       -1.49011820530835       12.10340924214885
H            4.13601446009059       -0.10895458031072       11.63406260034460
H            2.51392036121248        0.16970280597670       12.26075054988256
H            3.25520543690605        1.35684265130959       11.20301567466094
H            0.78165792248399       -0.37964358870470        8.92902986410304
H            1.30966600338847        1.20426953571290        9.49350225746542
H            0.49815131072797        0.10276110083812       10.60099494367186
