16
 energy: -2.447834740727 gnorm: 0.000181275584 xtb: 6.5.0 (97a52f5)
C            1.08479776086641        0.02225635108153        0.05817640617179
C            2.59733176364397        0.08779625793496       -0.01910589738995
C            3.06732733361379        1.01074533276564       -1.10742181394455
O            2.28629376926747        1.60182278282042       -1.80440464341311
C            4.55007026829208        1.16761184422711       -1.29239337739450
C            4.88530083271037        2.12383069156599       -2.41994512406253
H            0.73578094020371       -0.64696676530454        0.84730506743551
H            0.66531224398286       -0.32316609723158       -0.88794094502721
H            0.66531183245897        1.01208756566104        0.24442497490743
H            3.01492062746780       -0.91077854182464       -0.19418897703744
H            3.01492019346877        0.42363196608060        0.93746112196271
H            4.99125790253342        0.18211204133870       -1.48297834785658
H            4.99125627933473        1.51661059288022       -0.35125905264129
H            4.45839020654626        1.77431074648344       -3.36122263887808
H            5.96166660028031        2.24279735946142       -2.56022898835713
H            4.45839144532907        3.10955787205967       -2.22886776447507
