174
 energy: -33.242829443361 gnorm: 0.000730922216 xtb: 6.5.0 (97a52f5)
C            5.21587308933902        4.63050088221374        0.35682512060819
C            6.05424490521403        3.40005028595997        0.05202073958898
C            5.89368855700032        2.30289896487153        1.10416075130443
C            6.79723008483068        1.09452617963280        0.85394008252145
C            6.76889062492594        0.09596439535125        2.00909358990157
C            7.79753120449788       -1.02970348679368        1.87345533394478
C            7.97589717673479       -1.80498349633771        3.17988876948852
C            9.20538905497221       -2.71023004695437        3.20586918542659
C            9.38662769689128       -3.38072189436109        4.56760207046574
C           10.69784618905736       -4.15126503536025        4.70784540878110
C           10.89795478901194       -4.69804633979262        6.12190733793779
C           12.30746710615724       -5.22547776986300        6.37918588218152
O           12.61991830530529       -5.26107293532230        7.77783237839224
C           13.99652931867393       -5.10810002713513        8.06526284206023
C           14.66004036772145       -6.14248606619249        8.71256422330314
C           16.02726649032811       -6.11773293819012        8.96238453206405
C           16.62041571705561       -7.22336705852003        9.67765260770455
C           17.91698305318459       -7.32518957775880       10.01908094900013
C           18.52529242057709       -8.38739152147893       10.78842324339724
C           19.89492795233755       -8.33231442585098       11.05711205480621
C           20.50860659242528       -9.29840282619423       11.80950494649803
C           19.78751899925804      -10.37021790925009       12.33864955734153
C           20.42384052184717      -11.39936911638739       13.20266952554953
C           20.24443723883625      -12.74229743263721       12.92595172383780
C           19.56302605319495      -13.16502264473134       11.79497125563680
N           18.96320894007641      -13.48774403760093       10.84907277012989
C           20.72022959617684      -13.71052432048690       13.79755074238985
N           21.11170231776706      -14.49733088694038       14.56339996312186
C           21.07390765142871      -11.00256371479426       14.48659829354585
C           22.31222815706651      -10.38722996111150       14.52005086896334
C           23.03704751475081      -10.14340957351584       13.36552305551496
N           23.60455913836346       -9.90326726592919       12.37594794296987
C           22.88249635769790       -9.94372999230045       15.70319239152746
N           23.33512275902243       -9.58344458001047       16.71517905592691
C           20.34339996832805      -11.31556266117338       15.73194666295528
C           18.94864003768485      -11.24094145944061       15.75940032279889
C           18.24088294877745      -11.56100661801995       16.88754967330640
C           18.89238554740573      -11.98294812676358       18.05249612512345
N           18.17027297274389      -12.31004667928740       19.20895943279465
C           16.70795734351092      -12.30480341246880       19.22624619338977
C           18.84358554405409      -12.69321897269314       20.44937297136260
C           20.28912721094076      -12.07172079452004       18.02052700886391
C           20.99358610690868      -11.75000535890800       16.89040106138354
C           18.42043140238736      -10.43452691186375       12.05224284127792
C           17.80299571736519       -9.46975984157004       11.29688923962816
C           16.78351577851243       -4.99673408646406        8.51539834175800
O           18.16327327973729       -4.99885165584075        8.72743983731031
C           18.87732977410737       -3.85586643322555        8.26932690744390
C           20.36527717386013       -3.99538914180041        8.55538357863164
C           21.19184744902465       -2.79652987967347        8.09807891797770
C           22.67986731339803       -2.96066933388478        8.40550259028639
C           23.52507153602635       -1.76679861386549        7.96444800410429
C           25.00952154789261       -1.94237819985020        8.28400021485570
C           25.86308611711915       -0.75126969402119        7.85060602015103
C           27.34637519418724       -0.93253021147450        8.17239855157280
C           28.20241656464392        0.25786412735149        7.74101671114980
C           29.68559888029324        0.07583801040436        8.06280336272704
C           30.54302148618278        1.26602881133527        7.63067068245030
C           32.01613236318874        1.08090159321413        7.95711862614995
C           16.11246607864714       -3.94619546332865        7.89807893559544
C           14.73620180593894       -3.95032407455592        7.69827803384115
C           14.08622134148302       -2.77806075861729        7.14836400038762
C           12.81690296592752       -2.43040066908993        7.43180888262371
C           12.07285723135099       -1.35300053359981        6.81391074179350
C           10.82785116988197       -0.98038682327601        7.32888809471324
C           10.07261971757681       -0.01032878967794        6.72039721683759
C           10.51503574930635        0.62632257623207        5.55949909517071
C            9.69110288142653        1.67313235980122        4.92160820282067
C            9.65375600833450        1.82867822938849        3.54875266884237
C           10.30030961884344        0.95545479751282        2.69005294319181
N           10.83013702245114        0.18657510964670        1.99257455985330
C            8.90270092714161        2.83928954065266        2.96953945773045
N            8.25886392149648        3.67873840667119        2.48066159691641
C            8.89609874546019        2.59065411472437        5.79361245772012
C            7.58410634423157        2.25619080575862        6.08146374367560
C            7.04962373993052        1.08171782029962        5.57534723160252
N            6.62858518159959        0.08413355123669        5.14488736434483
C            6.72862281394640        3.00288210881025        6.87286354236389
N            6.03952241625081        3.66035300464173        7.54493413955026
C            9.57201767412825        3.80228358739474        6.28805013028013
C           10.92184988425696        3.99938494894063        5.97794848304207
C           11.60470929269688        5.11083944851915        6.39645751976380
C           10.97333547994005        6.10045994599461        7.15659626505281
N           11.66526632384733        7.24165378267529        7.58625085740671
C           13.06365709811268        7.46958208680227        7.22435362776996
C           11.01687847334833        8.26749745612024        8.40270495766298
C            9.62410711799777        5.90893276016529        7.47104875110208
C            8.94749611047148        4.79532009914304        7.04941127015221
C           11.76456624072501        0.26103347525799        5.05321429782891
C           12.52444731075759       -0.70479536177392        5.66177370979018
H            5.34082777012700        5.40929499348338       -0.39815436250857
H            5.49133747778697        5.06137488097956        1.32104004743053
H            4.15407147936036        4.38386928440474        0.40397010399940
H            7.11445374046388        3.67944389147812       -0.01100901792805
H            5.80163607208234        2.99849378511301       -0.93762136717330
H            4.84656570386530        1.98385569035033        1.16213324781348
H            6.12102005374537        2.72295705943574        2.09197898005161
H            7.82671628313186        1.44282160835321        0.70552570108358
H            6.52183451408820        0.59919552565404       -0.08416637795839
H            5.76281014302835       -0.32212313309235        2.13031077196825
H            6.95922152248539        0.63854882257438        2.94283405470223
H            8.76132364981524       -0.60291434082739        1.57517492357129
H            7.52397889069495       -1.70697507803321        1.05614628333510
H            7.07123522413587       -2.38363372662291        3.40008454352878
H            8.05772822086223       -1.08945330665391        4.00661335090339
H           10.09671950984895       -2.11681232630406        2.96715121023894
H            9.13942405762636       -3.46538740994626        2.41439944047057
H            8.53902968184169       -4.04506293718207        4.77244947292105
H            9.33860224907697       -2.61326131835812        5.34972766963457
H           11.53189009076893       -3.48576904847100        4.45441336527140
H           10.74518773132442       -4.96446472209242        3.97453775713510
H           10.15572051545741       -5.47137104615909        6.34930347869841
H           10.69173190603448       -3.89945609125148        6.84200221035595
H           13.04942354940120       -4.59444516748543        5.87968021869106
H           12.44059620097084       -6.23574830278177        5.97662112640063
H           14.08235461086842       -6.99666317780830        9.01345619855778
H           15.95125949035611       -8.00995355767459        9.97468052822389
H           18.57730950817700       -6.53609167045285        9.71591528559844
H           20.47224591620745       -7.51456673347397       10.66041332225685
H           21.57002619629832       -9.25068385058966       11.96404204448316
H           18.43175343786140      -10.92050552436872       14.87197905103150
H           17.16841823627804      -11.48533338208813       16.87987810656952
H           16.33786751421130      -11.28915846891270       19.10119260009784
H           16.32491030419584      -12.69576712782024       20.16628179080878
H           16.32359987441938      -12.92771088825453       18.42104624306117
H           19.35485515458782      -13.64443905070100       20.31533909171632
H           18.13274550235519      -12.79711089100820       21.26619035383305
H           19.56959118475327      -11.93285413203987       20.73017020572414
H           20.81704450459248      -12.40876928494366       18.89447309797445
H           22.06523818229174      -11.85124077157244       16.87987209145340
H           17.85048887466415      -11.26522272986216       12.43198844673326
H           16.74980442912455       -9.54945364376174       11.09586955296246
H           18.47045754254276       -2.97221542166512        8.77254173105063
H           18.70014323885828       -3.74757229079611        7.19388096733299
H           20.73647272562615       -4.90944203265087        8.07854127957103
H           20.50777604660252       -4.15865513609819        9.62948282153243
H           20.81402129262110       -1.88423052573178        8.57450864246732
H           21.05059919033702       -2.63817294087757        7.02245068980041
H           23.05493391072266       -3.87298735592515        7.92679063175912
H           22.81536526889102       -3.12824244157800        9.48056076266990
H           23.15061508797914       -0.85355048882638        8.44174749161106
H           23.39601254545648       -1.60050353675620        6.88847201165638
H           25.38283799839877       -2.85567573955822        7.80573971215838
H           25.13600976939486       -2.11291361359545        9.35971338323305
H           25.49118673839552        0.16203780171122        8.32989864764457
H           25.73768437467419       -0.58027905405705        6.77488588894123
H           27.71788631789859       -1.84596334795844        7.69296569624166
H           27.47109776436744       -1.10490291508881        9.24802833642816
H           27.83104965883266        1.17104621537301        8.22091253469164
H           28.07755050232938        0.43013583316111        6.66545706492734
H           30.05667220994256       -0.83801940022441        7.58389438763801
H           29.81029083149840       -0.09600232031586        9.13849077786107
H           30.16251499917946        2.17851834591756        8.10767301780013
H           30.41313020406250        1.43379761384354        6.55366334530804
H           32.16907196338834        0.94877013728942        9.02942277695924
H           32.61669255435739        1.93697886687421        7.64287052962984
H           32.42166737672990        0.19652286379016        7.46306579031424
H           16.66040106334435       -3.07662754835430        7.58991301380260
H           14.67153883374282       -2.14449515915436        6.50589145594244
H           12.29309740429738       -3.02863514725600        8.15653037695166
H           10.45984350268224       -1.47256324209024        8.21271671185462
H            9.11104827576064        0.25580084419678        7.12288978569167
H           11.43297607571380        3.25397746888463        5.39477921175108
H           12.64199183924215        5.22584693060596        6.13780018436656
H           13.68928844217633        6.68225923260506        7.64000325940468
H           13.41853927939789        8.42421678957315        7.60635826465404
H           13.17135354237110        7.47732830262649        6.14155336343532
H           10.63476758640470        7.82642660040505        9.32115570816952
H           10.19243473618196        8.71544298836849        7.85157432706124
H           11.71550278506562        9.05658480788974        8.67183710502177
H            9.10953093601370        6.65284865929728        8.05256780373488
H            7.91310123014102        4.69699375360468        7.31552023947429
H           12.13216469907764        0.74621525054677        4.16603810948976
H           13.46743858613195       -0.98750812563752        5.22899144778940
