70
 energy: -13.496768678796 gnorm: 0.000735489766 xtb: 6.5.0 (97a52f5)
C            1.60602999773498        2.38917200997628        1.98403902491445
C            2.97559738526541        3.00166034147471        2.22855915399117
C            3.93106835124358        2.03912899088817        2.93261836932279
C            5.28965725091195        2.65457672551634        3.23538476602915
N            6.18966452060919        1.70958897332920        3.91884374995051
C            7.32248656494793        1.17393405265722        3.28516716111787
C            8.06441243776309        1.61713148632562        2.18409015721594
C            9.12276531851163        0.86013542461351        1.75035794023232
C            9.46203465032711       -0.34097257341645        2.38487131220539
C            8.74345724872541       -0.79695346284635        3.46032944192560
C            7.66403081248730       -0.03353446703839        3.91897627079545
C            6.70559314609805       -0.25150731398922        4.96361883077231
C            6.51429746343674       -1.37608499480504        5.80035512827457
C            5.45628941289332       -1.40144515851375        6.65856375965826
C            4.58939627948699       -0.28615868835417        6.72699798021366
C            3.46710337575173       -0.04251566086768        7.58712385968403
C            2.83060639089327       -0.83909589755708        8.53999066208077
C            1.75703030473364       -0.32729137907450        9.25227583298223
C            1.04706106083071       -1.16244877711884       10.24365209977795
C           -0.33579694865105       -1.06624009319414       10.40550456155852
C           -0.99623399164389       -1.85286609782625       11.31584982925584
C           -0.31020727165016       -2.77636548457853       12.10970203174281
O           -1.06187202059948       -3.54173159205993       13.00711323573639
C           -0.31925497609826       -4.47965198655995       13.74830961965807
C            1.07559116401839       -2.86974602132014       11.94899521554531
C            1.73519157342100       -2.08151515018354       11.03766415123619
C            1.34313645691056        1.00354920836241        9.00560143108683
C            1.96351598004346        1.79697743477519        8.07846115780471
C            3.03636845612678        1.27363190054663        7.34721681624602
N            3.85071625028075        1.83866299976786        6.35522783581512
C            3.97907840480258        3.29570491552580        6.18293621951831
C            5.37211190440883        3.79948061323621        6.53097037712295
C            5.53012646105646        5.30806806300397        6.34288432666700
C            6.93788073830823        5.79191719605994        6.65049475008960
C            4.77782731744483        0.86376896942393        5.93866398046526
C            5.83748459150804        0.85598215266641        4.98180688823355
H            0.92944344527528        3.08278077691004        1.47960777476832
H            1.13365647206295        2.09349677011935        2.92305989580639
H            1.67934279543681        1.49292640693888        1.36476227073812
H            2.87758039174151        3.91865414661295        2.82500514692651
H            3.42204927573544        3.32763976608391        1.27946059334599
H            4.06954527729201        1.13770338010836        2.32358693317260
H            3.47434550075599        1.67885695787314        3.86124601270926
H            5.20019029055242        3.56040854962730        3.83614074505466
H            5.76282738337898        2.97628208933237        2.30406849435513
H            7.80995892669908        2.54256858411521        1.69962901736118
H            9.70401110259664        1.19345404942629        0.90621488463436
H           10.29776579497938       -0.91532769859606        2.02008406142925
H            8.99166027201696       -1.72253198135538        3.94906286185834
H            7.19176368614704       -2.20859429088830        5.73007496005947
H            5.28102812722912       -2.24751952352961        7.29914384913797
H            3.16005638432373       -1.84910161341313        8.69756254858308
H           -0.88904182645718       -0.37762787384940        9.79069820339437
H           -2.06277992178177       -1.77793204913690       11.43347026924519
H           -1.00263991914735       -5.03149717299133       14.39439443055664
H            0.41577968148439       -3.96569213361497       14.36897950477369
H            0.17276398648399       -5.18161879967726       13.07367830084598
H            1.63477287486201       -3.56584002282870       12.54718787051556
H            2.80418174312422       -2.15866723198680       10.93821306467905
H            0.52314633516678        1.40049559304521        9.57836870280498
H            1.62918734639976        2.80289390486741        7.89888850651161
H            3.24075287890639        3.78898286260353        6.82053388581468
H            3.69527294584800        3.56050247081583        5.16367837343351
H            6.11749648572421        3.27092465562309        5.92598122879440
H            5.60862395532460        3.52480561615035        7.56605874763785
H            4.80121749872898        5.83115263457061        6.97627780965353
H            5.25519794243503        5.57714395414942        5.31426624015018
H            7.21897666366940        5.55964514480450        7.67953023591148
H            7.03975230133803        6.87140303100626        6.51770423633217
H            7.67094783930658        5.31004238828779        6.00053241007691
