47
 energy: -9.556579685739 gnorm: 0.000728581906 xtb: 6.5.0 (97a52f5)
C            1.92328008178198        1.94228214839563        0.12837540391139
N            2.82818740372511        0.80149662832939        0.27964824716887
C            3.44331010066769        0.33682804333673       -0.95981065443467
C            2.78881015372932       -0.03584779494758        1.43030720987707
C            2.49153495543016        0.48227483041392        2.69302884790240
C            2.42893014598602       -0.33372612997834        3.79485110071478
C            2.66186902281759       -1.70322526724931        3.68401718462307
N            2.58567312847627       -2.56214792878149        4.83299205261507
C            3.33162414577008       -2.24908313197194        5.98798615359653
S            3.90076642425135       -0.63964858987958        6.36896288666652
C            4.63377264102946       -1.15554944835551        7.86907445490226
C            5.31991871822664       -0.42098337718171        8.82312600930388
C            5.81825815100190       -1.06259722460072        9.93545315637402
C            5.63852126901846       -2.43461453289415       10.10506839393654
C            4.96125694618074       -3.17352487795593        9.16773067443727
C            4.44424377123679       -2.53553728206192        8.02754646688628
C            3.71801300860638       -3.14590089140980        6.94044839056909
S            3.39168678945557       -4.90095847008602        6.82602946020224
C            2.12420416992389       -4.85884845688205        5.60413841046418
S            1.05332625964189       -6.20653786390840        5.29565714136158
C            0.13571331773818       -5.30829017099378        4.10920161880458
C           -0.97656224330599       -5.70549484893867        3.38129516007599
C           -1.56459233771507       -4.81597094520280        2.51224742623537
C           -1.05418504376043       -3.52732041043834        2.36723020729468
C            0.04792733837065       -3.12770610887572        3.07969745837860
C            0.67334960147430       -4.02714840352532        3.95833272113131
C            1.83853198213339       -3.80079931147951        4.79720485747242
C            2.97795457413544       -2.22267601007942        2.43092515995201
C            3.04002867059526       -1.40631501029540        1.32789989653569
H            2.37889818624147        2.70659957835828       -0.49849416648774
H            1.68565883245619        2.39356210093306        1.08791431608171
H            0.99546394886433        1.61557024348555       -0.33798427393477
H            3.64578480645850        1.17544294338545       -1.62319586415773
H            2.77935825027780       -0.35784525858312       -1.47099095939313
H            4.38756192112649       -0.16129062477941       -0.74775510329464
H            2.33295715626539        1.53919438559628        2.80805555649675
H            2.17931550032015        0.07388362347700        4.75806584001876
H            5.45537359505115        0.63714024044398        8.68134799285689
H            6.35307004241665       -0.49898131015549       10.68215687580957
H            6.03588942473149       -2.91902355624316       10.98179242787527
H            4.81832911251304       -4.23247697677447        9.28929146658424
H           -1.36696855801026       -6.69996081058655        3.51101186199445
H           -2.42985827877367       -5.11503317770085        1.94389964872630
H           -1.53115212854676       -2.83841962353239        1.68965111616515
H            0.43310544168105       -2.13016689056498        2.97668987698925
H            3.16676377942557       -3.27832467935905        2.34307212292015
H            3.26420582087847       -1.83028936991553        0.36543576778434
