9
 energy: -1.433188356153 gnorm: 0.000552464385 xtb: 6.5.0 (97a52f5)
C            1.09366305806051        0.07085046597237        0.03822248561687
N            2.54376498501309        0.06298962096458        0.05548933618498
C            3.26205832547466       -0.41773367054625        1.11159613438437
O            4.46554176082650       -0.45471330909488        1.19283820624953
H            0.71133003807923        0.49362901366800       -0.89058470292421
H            0.71759989939273        0.66451978549956        0.86998118230847
H            0.71759857430499       -0.94627937627315        0.13677080660746
H            3.03516908770696        0.43416538995204       -0.75994720069573
H            2.71262427114132       -0.80333792014228        1.95873375226825
