49
 energy: -9.736607619629 gnorm: 0.000175862533 xtb: 6.5.0 (97a52f5)
C            2.10823564305278       -1.06754528014831       -1.01400631279059
O            3.15470008864336       -0.28493659107700       -0.49329147827835
C            3.58790279764887       -0.65954770029728        0.78401890235481
C            4.56365403220748        0.12858460627110        1.38694921669951
C            5.05975003751038       -0.14648280101891        2.65766676766393
O            6.05044101218719        0.70372137023217        3.16261455221559
C            6.57206346115474        0.32427471991392        4.41271326860679
C            4.54143824689443       -1.24773726664252        3.33889419988156
C            3.57084827502714       -2.06348834929688        2.76666809260926
C            3.05084719296242       -3.22556298558839        3.49422189703599
C            2.97713818438555       -3.36652461073197        4.83373882960591
C            2.43589172604964       -4.66656192205733        5.18499772109989
C            2.25537717616848       -5.11934268621277        6.58102144207206
C            1.38278455473324       -4.44825612954915        7.43556117984478
C            1.19904053877414       -4.87863761503318        8.73088647295693
C            1.88610919251238       -5.98130423177692        9.19801729463280
C            2.76080936018361       -6.65276201480441        8.36713696339985
C            2.94651384457170       -6.22651616438300        7.07062962557360
C            2.16391312977320       -5.37115699018698        4.04011164137484
C            1.57738395498924       -6.70321043501902        3.91372211460593
C            0.84906440135557       -7.29107584846416        4.95104905599929
C            0.30004853737589       -8.54539763469743        4.81251665755177
C            0.45901490938279       -9.24465290302593        3.63307358215010
C            1.16496304515037       -8.68016739167659        2.58968476495357
C            1.71414204978087       -7.42483733390609        2.72468976024675
C            2.54242052222989       -4.49587254577595        2.87638939640333
C            3.10829111284506       -1.76330233885165        1.48962491859092
H            1.82342026092838       -0.66212595346829       -1.98546000472404
H            1.24609020583894       -1.02604181910999       -0.34716695002501
H            2.44319899334940       -2.09712004070349       -1.14464562760552
H            4.94761059688333        0.97672473049801        0.85310745348295
H            7.35930700164775        1.02729709745206        4.68693863832112
H            6.99933125072861       -0.67723294839803        4.34841018666776
H            5.78732568154148        0.35897279191266        5.16921381444416
H            4.90502392450638       -1.48924438788960        4.31880574958124
H            3.27079358022294       -2.62146796278786        5.55112017510821
H            0.84595997719599       -3.59212256207412        7.06431723027493
H            0.51716108430236       -4.35437370805592        9.38023904772718
H            1.74053357957924       -6.31698222654661       10.21180961349847
H            3.29795172291590       -7.51237722050569        8.73300235800321
H            3.62432834966469       -6.74802219431014        6.41680623921188
H            0.70538671167891       -6.74634887738294        5.86625571725198
H           -0.25580423454776       -8.98228424516351        5.62595892494845
H            0.03084987737449      -10.22794696980647        3.52606404342795
H            1.28733991192798       -9.22432291269379        1.66747622851408
H            2.26553218522646       -6.99204163170749        1.90823282967741
H            1.67295897888129       -4.30541034421922        2.23656787598272
H            3.32207480373970       -4.96458028507318        2.26473788088239
H            2.35895852886078       -2.39337925615702        1.05102804827184
