63
 energy: -14.223278619809 gnorm: 0.000367194604 xtb: 6.5.0 (97a52f5)
C            1.26107996665254       -0.66086086747321       -2.01434763520875
C            2.58827059945244       -0.50701991409942       -1.35355511845540
C            3.13788190251793        0.75290374441165       -1.17490605219212
C            2.38992700604820        1.98220356195950       -1.56533953220848
O            2.86530064236133        2.74135241544719       -2.38738737855985
C            1.08775668428491        2.25925188423195       -0.91554095322852
C            0.81736236406907        1.72165696882173        0.34098568668585
C           -0.38261557648669        1.93195339039733        0.97484659571367
C           -1.38341288367866        2.69711399895616        0.37373189051415
C           -2.64530074023216        2.92852487822257        1.00282909343028
C           -3.60370849104029        3.66733730769897        0.40130064065986
C           -3.39145678726730        4.24530263010526       -0.88915662493665
C           -4.36740225815121        5.00570848744994       -1.53501373514128
C           -4.13066609391989        5.54770854507538       -2.78112622019349
C           -2.92269862176394        5.35100839161226       -3.41662678719219
C           -1.91394276718890        4.59830365488367       -2.81382539017273
C           -0.64964280186723        4.37521584471834       -3.43983741628300
C            0.30671870411093        3.63945018631114       -2.83332067374470
C            0.10587281735827        3.04935930215482       -1.54928072152117
C           -1.13636949444247        3.25930653995412       -0.90102245075106
C           -2.14910422647061        4.03709147004871       -1.53587724117677
C            4.43885212949097        0.90306439322025       -0.61745453780518
C            5.03602443166840        2.18519181103149       -0.48528702575657
C            6.26380473839190        2.33958201650261        0.05893058383116
C            7.00804267377008        1.21456633943242        0.51517214232786
C            8.28058792925537        1.35865434126851        1.08023016433956
C            8.98171534899532        0.25981501890917        1.50322505293141
C            8.44393081658782       -1.01019636590806        1.37803761646107
C            7.18547276352747       -1.21396046651156        0.82458062165629
C            6.59563439570868       -2.54391949839756        0.67771545904183
C            7.25587069743247       -3.70006856786008        1.07729918441775
C            6.67947757054764       -4.94985726593472        0.92851522874461
C            5.43058461382785       -5.07992701204267        0.37861014966834
C            4.71950081029808       -3.95111724273681       -0.04289009045242
C            3.42106435520811       -4.06133959674926       -0.61752837339802
C            2.74424006144359       -2.96752690505417       -1.03125257522608
C            3.29671257161324       -1.65728107021354       -0.91201390394361
C            4.57615380471311       -1.51787616007825       -0.33381992434126
C            5.30181977958404       -2.67070537431372        0.10383064806889
C            5.15208892217452       -0.22934408823898       -0.19135570674709
C            6.45247015649542       -0.08011053777942        0.38556228262049
H            0.94027150178037        0.26709246200673       -2.48742607134739
H            0.49656362976818       -0.94952344372492       -1.29237456837815
H            1.29929301642263       -1.41744861886401       -2.79834929127381
H            1.57570926988997        1.12747034591175        0.82077746141676
H           -0.56437305640995        1.50378711396976        1.94545606458774
H           -2.82207974590889        2.49928771490094        1.97381645324926
H           -4.54850523519132        3.83155480760008        0.88956826478465
H           -5.31355764669645        5.16473573216587       -1.04725509256420
H           -4.89803599716130        6.13062766561141       -3.26372263065533
H           -2.74621768050511        5.77854172391366       -4.38852526969518
H           -0.46759166487551        4.81149680237965       -4.40659571325654
H            1.26001199507326        3.49737594465450       -3.30929322294247
H            4.49574997439328        3.03736052249951       -0.85928031544633
H            6.70051695637523        3.31944061086713        0.14485719473118
H            8.70308860858153        2.34393549110427        1.17667285195516
H            9.96120889624971        0.38430454571293        1.93548077241812
H            9.02062687184059       -1.85022850039221        1.71898218721260
H            8.23681814146948       -3.63296401567140        1.51063368772619
H            7.21781544802602       -5.82751542970263        1.24712944000750
H            4.98509832920683       -6.05316594309683        0.26462851864606
H            2.98325760862419       -5.03961074872955       -0.71699075924057
H            1.76120226388180       -3.08346097254408       -1.45180693440702
