22
 energy: -3.866093711656 gnorm: 0.000545611408 xtb: 6.5.0 (97a52f5)
C            0.93701568183132        0.01184710068499       -0.03733737556028
C            2.42654029472484       -0.01839794663839        0.01240075641777
C            3.14560683509165        1.16824060055733        0.00796599454611
C            4.52384576513900        1.16305068330099        0.05586685319558
C            5.23189248015816       -0.02183856725365        0.11067038311110
C            6.71764067396101       -0.00727823786350        0.15984425453496
C            4.52426046943006       -1.23768276478942        0.11658144236558
O            5.16762923687419       -2.46207600585919        0.16679561302666
C            3.11652431267576       -1.22585718888770        0.07056516128181
C            2.39561636377554       -2.52485141904224        0.08210712619216
H            0.56261566523343        1.03182155632041       -0.13301036227551
H            0.50767129321216       -0.41395367255010        0.87033055390397
H            0.56262257157466       -0.55734638236280       -0.88901002248850
H            2.61392489430009        2.10349868569312       -0.03290717946658
H            5.06264616075666        2.09526419541962        0.05035786505391
H            7.10390499917538        1.01299234690585        0.17285337415251
H            7.14247856264726       -0.50757445039355       -0.71165959718004
H            7.08474428047733       -0.50695261777905        1.05755307044220
H            6.14024225862682       -2.33438453469092        0.19955556387618
H            3.09949661812148       -3.35283031954191        0.17569875552823
H            1.83290301847083       -2.66974472840920       -0.84085757940702
H            1.70150756374247       -2.58258633282073        0.92137534874921
