82
 energy: -17.115071303672 gnorm: 0.000401038491 xtb: 6.5.0 (97a52f5)
C            4.35595332381965        0.45815494566373        0.25052043380031
C            3.07319610645720        0.39445916699685        1.00491765637155
C            2.71989858019792       -0.76990846510243        1.66780270712560
C            1.53483800322233       -0.86034421745052        2.36853886715443
C            0.67777152842491        0.21828789107488        2.41294369482297
C            1.00465896431719        1.38148597165917        1.75372934990063
C            2.19515593032331        1.48999924582868        1.03882768300360
C            2.50700798044100        2.75186798892679        0.32112680509734
C            2.70512090032613        3.94256232799122        1.01736307402262
C            3.00263271258504        5.10753941236947        0.34146058127613
C            3.09850699938895        5.10818629262449       -1.03111439427156
C            2.88761296816436        3.93804739978137       -1.75916404561754
O            2.99346956699679        3.96081300088412       -3.16207321733807
C            2.14350577930929        3.14508230850900       -3.91521764532787
C            2.55751466717494        2.72423695858290       -5.18000091162924
C            1.77149691965675        1.89285159033690       -5.96592024015269
C            0.51652298380502        1.50419380778403       -5.46201623537944
C            0.05053442823733        1.94294481319729       -4.20938455328085
C            0.88512374320073        2.75366591646830       -3.45424087760517
O           -1.19378219551408        1.60038965446515       -3.71806361959919
C           -2.09855927601975        0.94588031231274       -4.53939989563666
C           -3.40708403813696        0.79151432626149       -4.06314819184565
C           -4.40581015424520        0.23473583317005       -4.83681903167259
C           -5.78715567889413        0.10991702327008       -4.30823302518085
C           -6.01845957924908       -0.65744523235434       -3.16807298385313
C           -7.28714685614101       -0.79972177455747       -2.65413920283424
C           -8.35161409672692       -0.17735920335913       -3.27020160044936
C           -8.14139877207418        0.59276343875934       -4.39551892149001
C           -6.87128825639721        0.75892247466561       -4.92359173707436
C           -6.68066139337651        1.60544870544970       -6.13428582745969
C           -4.08801971425093       -0.18939881469358       -6.13598976912580
C           -2.81347004284360       -0.06682496813537       -6.61691952163400
C           -1.80280477030659        0.46507216333000       -5.82698164886942
B           -0.33930463828626        0.60642863178429       -6.27059883449947
C            0.32039015055462       -0.06307755346593       -7.48513354922715
C           -0.21181121208921       -1.14807572239798       -8.16943111373040
C            0.40736030113338       -1.64563750276664       -9.28306408005401
C            1.60005085424082       -1.07539070134811       -9.75360280062840
C            2.25607010391641       -1.60164637703484      -10.97626007620606
C            1.54999707673174       -1.61515937359590      -12.17789823519186
C            2.12794738199540       -2.08228071891436      -13.33609136164977
C            3.42598756728069       -2.54522677181804      -13.31730891764644
C            4.13890973884242       -2.54668306481729      -12.13605250496108
C            3.57318852035873       -2.09200456890437      -10.95569358767077
C            4.37238767202182       -2.11872112577618       -9.69883402894800
C            2.14874784808003       -0.02251791296094       -9.04881943937394
C            1.54979312547030        0.48651514387938       -7.88918573107816
O            2.23500436194637        1.47364978994470       -7.19782842643885
C            2.60360107633892        2.76720417575572       -1.06209703998760
H            5.10983337743054       -0.18934047114037        0.69985842183216
H            4.75764832981904        1.47201490002743        0.24059359556811
H            4.21423072220576        0.14134260723566       -0.78334643947255
H            3.38692202735505       -1.61436464979993        1.63123346752880
H            1.27897058260728       -1.77396881215777        2.87981044196891
H           -0.24923092724709        0.14909726936274        2.95842671087216
H            0.33389275879073        2.22317900513461        1.77479652884333
H            2.63120076237937        3.93822363822137        2.09116679258438
H            3.16122946289693        6.02111455427187        0.89066794090921
H            3.32991376747828        6.01044340880716       -1.56877406295483
H            3.51777830897169        3.03404316102973       -5.54463875496091
H            0.53404051771208        3.10514839345889       -2.50363307050980
H           -3.63540352778511        1.14774927367370       -3.07602184040432
H           -5.18467062549502       -1.14727156051230       -2.69504887055289
H           -7.44851363155808       -1.39888143202209       -1.77284788730312
H           -9.34675568054691       -0.28990877538935       -2.87195694495489
H           -8.97366313359735        1.07960900930971       -4.87484010348365
H           -7.41573947806713        2.41035897485025       -6.17089225929520
H           -6.78717731307897        1.01302288369547       -7.04369333365888
H           -5.69160480505330        2.06488078906079       -6.14281032386257
H           -4.86353984970513       -0.61444900841794       -6.74943114636963
H           -2.59940147576672       -0.34253430476844       -7.63312195964207
H           -1.09490308237968       -1.62925684712844       -7.79048325194521
H           -0.00959106481750       -2.48719540809615       -9.80897542540418
H            0.54000859834592       -1.24275671826225      -12.18962141566354
H            1.56790776332716       -2.08240166805522      -14.25701092329663
H            3.88305852442403       -2.90694983924581      -14.22384327234264
H            5.15268895249205       -2.90932233388971      -12.12294353149961
H            5.07796635929588       -2.95043671948187       -9.69966473362367
H            3.73094504327906       -2.23483385757619       -8.82455108737404
H            4.94247842375591       -1.19657828511711       -9.58079614383525
H            3.06768502974927        0.42151247086213       -9.38276497186954
H            2.46237809254737        1.85410370975481       -1.60956617397160
