18
 energy: -3.259920345092 gnorm: 0.000408017467 xtb: 6.5.0 (97a52f5)
C            1.84594960084925        1.48200431553990        0.00295664270764
C            0.57426689585685        0.70321420280806        0.00225879580384
C           -0.64592668294357        1.36671678123361        0.00351462554196
C           -1.83547499529130        0.66917527567653        0.00215862545758
C           -1.82204701134551       -0.70838401696113       -0.00038730058478
C           -0.61912744690746       -1.38260801885453       -0.00060232035211
C            0.58790080247741       -0.69544521608927        0.00137525989128
C            1.87449410432826       -1.44934121169387        0.00470581628639
H            1.65509591157118        2.55618456219133       -0.00415346641411
H            2.44791823138192        1.24898692393521       -0.87653710549153
H            2.44097482937071        1.25886367634235        0.88967890401465
H           -0.65685426931956        2.44361092874205        0.00597542084636
H           -2.77360041742865        1.20044119350458        0.00288394154282
H           -2.74963805367825       -1.25783589905356       -0.00217659501139
H           -0.60906419759949       -2.45950749125434       -0.00149203523047
H            1.70454922904880       -2.52704858537117        0.00755502817639
H            2.46740290078333       -1.20739390371867        0.88794521419710
H            2.46947056884611       -1.21199351697707       -0.87834945138164
