77
 energy: -16.545440167296 gnorm: 0.000595405580 xtb: 6.5.0 (97a52f5)
F            0.95178482175921        0.18603104048633        0.08213298853098
B            2.34388007557170        0.14035715297135        0.07348452693545
F            2.87230641011432        0.07130027645734        1.36051828583404
N            2.79962536715758       -1.08598075392473       -0.71933011410141
C            2.53286302139884       -2.34718469584394       -0.36710999882890
C            3.16041227472546       -3.16855676460713       -1.31545487566608
C            3.80589444237790       -2.36458470719761       -2.23877062465477
C            3.57965631882950       -1.01592201188581       -1.87672706960884
C            4.02962754876424        0.18675404953419       -2.45268396613528
C            4.84587145183428        0.20637202789475       -3.67840936330587
C            4.50938506510419       -0.58804915922113       -4.77746262601086
C            5.27890226473084       -0.58332409324464       -5.91565490675439
C            6.41682294302247        0.21451099369457       -6.00558735205314
C            7.21238089469041        0.19695951434111       -7.16489392908620
C            7.91142118779879        0.13670793282202       -8.16672089959451
C            8.72234718939348        0.01691907537785       -9.30830107587945
C            9.62216459684727        1.01999015282462       -9.66239162080729
C           10.42935446637192        0.88534136859492      -10.76563368598184
C           10.37695095222621       -0.26489137003480      -11.56127065538954
C           11.24888889208174       -0.43298880532223      -12.73778287734284
C           12.58334484704688       -0.00672359289961      -12.72303617895765
C           13.34773800904319        0.15134953882695      -13.97572538935284
C           14.69430286480307       -0.21995702235786      -14.03933983947477
C           15.41340783601959       -0.07498608925964      -15.20319051817279
C           14.81110997031474        0.44919186971873      -16.32993267184739
C           13.48526131746787        0.83302296525870      -16.28714518883047
C           12.76196685262415        0.69021499789632      -15.12571816568647
C           13.28121623973128        0.28154234552578      -11.45472559658037
C           14.18064740963492        1.34818288256338      -11.36341909397981
C           14.84061229084781        1.61854294064412      -10.18690480703341
C           14.62583518469937        0.82930765238119       -9.07416530975461
C           13.75075767940142       -0.23660127108861       -9.14425003245248
C           13.08954056766486       -0.51163797111411      -10.31869998296779
C           10.66993669983131       -1.08803033189645      -13.92857682933728
C           11.39766515119857       -2.02175498024218      -14.67260361598521
C           10.84494832797953       -2.63393131446093      -15.77365005040660
C            9.55176276337871       -2.33653767348520      -16.15585382344253
C            8.81092686171047       -1.42514839610059      -15.42950183292746
C            9.35962265410854       -0.80984199372401      -14.32797824979454
C            9.45641074509233       -1.25864320273057      -11.21209123904352
C            8.65173810891973       -1.12185533573335      -10.10783043185792
C            6.75343264499760        1.01264134531428       -4.91491297045999
C            5.98469048668611        1.01045718114332       -3.77562062549995
C            3.65259356097849        1.36684079195804       -1.78537640594636
C            3.88326265749637        2.72784288860099       -2.09422900042123
C            3.26591995224101        3.49649339782179       -1.12271635739560
C            2.64001322429452        2.64026280606593       -0.20454192529067
N            2.88031061474894        1.39349093615721       -0.62103631543544
H            1.95518319355439       -2.63705041511540        0.49493271139352
H            3.14981995517251       -4.24677478240922       -1.31630889266332
H            4.39897363997478       -2.70232014881904       -3.07140451294642
H            3.62175854280259       -1.19457595944761       -4.72902279730118
H            5.00986020354528       -1.20115924107831       -6.75532615534938
H            9.68023551445540        1.90533948866982       -9.05274447476069
H           11.11745499350653        1.66922669418804      -11.02983480039939
H           15.16154234852153       -0.63443073428774      -13.16285423023428
H           16.44851501498188       -0.37294652248947      -15.23637533601057
H           15.37543266945509        0.55967576499064      -17.24134600076348
H           13.01605859321810        1.24493611820001      -17.16546361861387
H           11.73060926130393        0.99515615224234      -15.09107290371029
H           14.34410881694594        1.96583284931052      -12.22952952962202
H           15.52559880340895        2.44872989781310      -10.13322205174110
H           15.14225627107351        1.04427775699342       -8.15305654653339
H           13.58575993273062       -0.85450901850745       -8.27691642935667
H           12.41382586649730       -1.34718516936158      -10.37474188295772
H           12.40261074306865       -2.25945257760222      -14.37006887929797
H           11.42220171466676       -3.34751612730772      -16.33833172062183
H            9.12035604549996       -2.81727927128478      -17.01846295744577
H            7.80082931663497       -1.19515319368810      -15.72638052544123
H            8.78434228478623       -0.09630931337018      -13.76375921695271
H            9.39968251787671       -2.14856163184373      -11.81457656961485
H            7.95728002691129       -1.90059613320613       -9.84265504913406
H            7.63425963763569        1.62882880679910       -4.97433263519752
H            6.27106197197705        1.61140646443952       -2.93012552141331
H            4.42314176699116        3.09742574213344       -2.94920892703928
H            3.25771208543966        4.57394891771201       -1.08213549987033
H            2.06205255964833        2.89788899789506        0.66750724181275
