49
 energy: -10.605404422978 gnorm: 0.000865901016 xtb: 6.5.0 (97a52f5)
N            2.04007895020668        0.78643573401205        3.23143468940869
C            2.91674400577325        0.87851393945751        2.45455693333894
C            3.96460532655853        0.91973978988847        1.58076671735074
C            4.50551851680941        2.00603376072092        0.98471601016587
C            5.60061049476094        2.00104532705515        0.07148267100134
C            6.08556586386611        3.21681687185533       -0.49219692607388
C            5.61230288921448        4.46390456050027       -0.23966974890225
C            6.12180706015901        5.68344259160937       -0.81853122735689
C            5.54704815409485        6.90826669680110       -0.45775506433672
C            6.00944737309325        8.09115875942493       -0.98654242845490
C            7.05515650213500        8.08588047495452       -1.88856604118091
C            7.63729322897101        6.88989492435339       -2.26055030265610
C            7.18025672325599        5.70271328290372       -1.73551196168379
C            6.25850327351183        0.79832952447408       -0.32206300968439
C            5.95753184172287       -0.45093709435841        0.09753686454945
C            6.55404544959178       -1.62313393752460       -0.26681014431615
N            7.05068874983926       -2.65446723649933       -0.53101473629853
P            4.61849907211794       -0.70819198790727        1.25094506867328
C            5.19268109460193       -1.52757596337613        2.76679954164752
C            6.18634375337365       -2.47786482935926        2.69432463413585
C            6.60745203607465       -3.12972396863004        3.83703043784347
C            6.02444835029957       -2.83354929726501        5.05203582869157
C            5.01780312683183       -1.89259265731454        5.12257045927384
C            4.59972711965965       -1.24420751873312        3.97692022013586
C            3.32896551171376       -1.71476524135543        0.48923669306315
C            2.43816021040227       -2.39123751059946        1.28998344052259
C            1.43751474665830       -3.15147149175700        0.71353569926491
C            1.33483091899914       -3.22436167002583       -0.66151778699171
C            2.22740744160077       -2.53751116394576       -1.46056026523287
C            3.22693557450815       -1.77806207119481       -0.88109457605347
H            4.05575072212172        2.95254814166097        1.22996006253404
H            6.90726297904262        3.12124511299877       -1.17772602392399
H            4.79534984997013        4.57758699354742        0.44758397136898
H            4.73199518146050        6.91634645395633        0.24540663810562
H            5.55533575006746        9.02433832553511       -0.69612806580707
H            7.41658882945659        9.01348083328906       -2.30133246952956
H            8.45301125540021        6.88716058627636       -2.96483090011408
H            7.64471806160211        4.78134320190942       -2.03664860990442
H            7.07392140876038        0.89101956097577       -1.02207256335587
H            6.62815032426657       -2.71974820972664        1.74235957702373
H            7.38772945470588       -3.87065296498945        3.77766958053976
H            6.35124000806324       -3.34153383461024        5.94474200636066
H            4.55385449751924       -1.66671688566116        6.06867594271641
H            3.79680706641702       -0.52857485846994        4.02665176575020
H            2.52589705754759       -2.31614341457495        2.36204144256804
H            0.73835371956041       -3.68383575357175        1.33760922211156
H            0.55543270123528       -3.81681543900030       -1.11220635845399
H            2.14664911473173       -2.59301742741743       -2.53377282620488
H            3.93113865765198       -1.23559302029245       -1.49151408161790
