      -----------------------------------------------------------      
     |                   =====================                   |     
     |                           x T B                           |     
     |                   =====================                   |     
     |                         S. Grimme                         |     
     |          Mulliken Center for Theoretical Chemistry        |     
     |                    University of Bonn                     |     
      -----------------------------------------------------------      

   * xtb version 6.5.0 (97a52f5) compiled by 'conda@d2599ee0d4f4' on 2022-05-15

   xtb is free software: you can redistribute it and/or modify it under
   the terms of the GNU Lesser General Public License as published by
   the Free Software Foundation, either version 3 of the License, or
   (at your option) any later version.
   
   xtb is distributed in the hope that it will be useful,
   but WITHOUT ANY WARRANTY; without even the implied warranty of
   MERCHANTABILITY or FITNESS FOR A PARTICULAR PURPOSE.  See the
   GNU Lesser General Public License for more details.
   
   Cite this work as:
   * C. Bannwarth, E. Caldeweyher, S. Ehlert, A. Hansen, P. Pracht,
     J. Seibert, S. Spicher, S. Grimme, WIREs Comput. Mol. Sci., 2020, 11,
     e01493. DOI: 10.1002/wcms.1493
   
   for GFN2-xTB:
   * C. Bannwarth, S. Ehlert and S. Grimme., J. Chem. Theory Comput., 2019,
     15, 1652-1671. DOI: 10.1021/acs.jctc.8b01176
   for GFN1-xTB:
   * S. Grimme, C. Bannwarth, P. Shushkov, J. Chem. Theory Comput., 2017,
     13, 1989-2009. DOI: 10.1021/acs.jctc.7b00118
   for GFN0-xTB:
   * P. Pracht, E. Caldeweyher, S. Ehlert, S. Grimme, ChemRxiv, 2019, preprint.
     DOI: 10.26434/chemrxiv.8326202.v1
   for GFN-FF:
   * S. Spicher and S. Grimme, Angew. Chem. Int. Ed., 2020, 59, 15665-15673.
     DOI: 10.1002/anie.202004239
   
   for ALPB and GBSA implicit solvation:
   * S. Ehlert, M. Stahn, S. Spicher, S. Grimme, J. Chem. Theory Comput.,
     2021, 17, 4250-4261. DOI: 10.1021/acs.jctc.1c00471
   
   for DFT-D4:
   * E. Caldeweyher, C. Bannwarth and S. Grimme, J. Chem. Phys., 2017,
     147, 034112. DOI: 10.1063/1.4993215
   * E. Caldeweyher, S. Ehlert, A. Hansen, H. Neugebauer, S. Spicher,
     C. Bannwarth and S. Grimme, J. Chem. Phys., 2019, 150, 154122.
     DOI: 10.1063/1.5090222
   * E. Caldeweyher, J.-M. Mewes, S. Ehlert and S. Grimme, Phys. Chem. Chem. Phys.
     2020, 22, 8499-8512. DOI: 10.1039/D0CP00502A
   
   for sTDA-xTB:
   * S. Grimme and C. Bannwarth, J. Chem. Phys., 2016, 145, 054103.
     DOI: 10.1063/1.4959605
   
   in the mass-spec context:
   * V. Asgeirsson, C. Bauer and S. Grimme, Chem. Sci., 2017, 8, 4879.
     DOI: 10.1039/c7sc00601b
   * J. Koopman and S. Grimme, ACS Omega 2019, 4, 12, 15120-15133.
     DOI: 10.1021/acsomega.9b02011
   
   for metadynamics refer to:
   * S. Grimme, J. Chem. Theory Comput., 2019, 155, 2847-2862
     DOI: 10.1021/acs.jctc.9b00143
   
   for SPH calculations refer to:
   * S. Spicher and S. Grimme, J. Chem. Theory Comput., 2021, 17, 1701-1714
     DOI: 10.1021/acs.jctc.0c01306
   
   with help from (in alphabetical order)
   P. Atkinson, C. Bannwarth, F. Bohle, G. Brandenburg, E. Caldeweyher
   M. Checinski, S. Dohm, S. Ehlert, S. Ehrlich, I. Gerasimov, C. Hölzer
   A. Katbashev, J. Koopman, C. Lavigne, S. Lehtola, F. März, M. Müller,
   F. Musil, H. Neugebauer, J. Pisarek, C. Plett, P. Pracht, F. Pultar,
   J. Seibert, P. Shushkov, S. Spicher, M. Stahn, M. Steiner, T. Strunk,
   J. Stückrath, T. Rose, and J. Unsleber
   
 * started run on 2024/08/27 at 12:03:53.351     

           -------------------------------------------------
          |                Calculation Setup                |
           -------------------------------------------------

          program call               : xtb 8.xyz --chrg 0
          coordinate file            : 8.xyz
          omp threads                :                    16

   ID    Z sym.   atoms
    1   35 Br     1
    2    6 C      2-7
    3    1 H      8-12

           -------------------------------------------------
          |                 G F N 2 - x T B                 |
           -------------------------------------------------

        Reference                      10.1021/acs.jctc.8b01176
      * Hamiltonian:
        H0-scaling (s, p, d)           1.850000    2.230000    2.230000
        zeta-weighting                 0.500000
      * Dispersion:
        s8                             2.700000
        a1                             0.520000
        a2                             5.000000
        s9                             5.000000
      * Repulsion:
        kExp                           1.500000    1.000000
        rExp                           1.000000
      * Coulomb:
        alpha                          2.000000
        third order                    shell-resolved
        anisotropic                    true
        a3                             3.000000
        a5                             4.000000
        cn-shift                       1.200000
        cn-exp                         4.000000
        max-rad                        5.000000


          ...................................................
          :                      SETUP                      :
          :.................................................:
          :  # basis functions                  39          :
          :  # atomic orbitals                  38          :
          :  # shells                           20          :
          :  # electrons                        36          :
          :  max. iterations                   250          :
          :  Hamiltonian                  GFN2-xTB          :
          :  restarted?                      false          :
          :  GBSA solvation                  false          :
          :  PC potential                    false          :
          :  electronic temp.          300.0000000     K    :
          :  accuracy                    1.0000000          :
          :  -> integral cutoff          0.2500000E+02      :
          :  -> integral neglect         0.1000000E-07      :
          :  -> SCF convergence          0.1000000E-05 Eh   :
          :  -> wf. convergence          0.1000000E-03 e    :
          :  Broyden damping             0.4000000          :
          ...................................................

 iter      E             dE          RMSdq      gap      omega  full diag
   1    -19.7240218 -0.197240E+02  0.588E+00    4.43       0.0  T
   2    -19.7432457 -0.192239E-01  0.379E+00    4.01       1.0  T
   3    -19.7288561  0.143895E-01  0.161E+00    4.00       1.0  T
   4    -19.7477907 -0.189346E-01  0.566E-01    4.06       1.0  T
   5    -19.7479235 -0.132798E-03  0.382E-01    4.05       1.0  T
   6    -19.7481922 -0.268667E-03  0.197E-01    4.06       1.0  T
   7    -19.7482696 -0.774091E-04  0.157E-01    4.05       1.0  T
   8    -19.7483270 -0.573918E-04  0.337E-02    4.07       1.0  T
   9    -19.7483320 -0.500109E-05  0.170E-02    4.06       1.7  T
  10    -19.7483331 -0.110651E-05  0.505E-03    4.06       5.7  T
  11    -19.7483331 -0.176908E-07  0.178E-03    4.06      16.2  T
  12    -19.7483331 -0.290515E-08  0.122E-04    4.06     236.4  T
  13    -19.7483331  0.375522E-11  0.713E-05    4.06     404.6  T

   *** convergence criteria satisfied after 13 iterations ***

         #    Occupation            Energy/Eh            Energy/eV
      -------------------------------------------------------------
         1        2.0000           -0.8374760             -22.7889
       ...           ...                  ...                  ...
        12        2.0000           -0.4972603             -13.5311
        13        2.0000           -0.4481949             -12.1960
        14        2.0000           -0.4478191             -12.1858
        15        2.0000           -0.4451079             -12.1120
        16        2.0000           -0.4255953             -11.5810
        17        2.0000           -0.4110029             -11.1840
        18        2.0000           -0.4001263             -10.8880 (HOMO)
        19                         -0.2508085              -6.8248 (LUMO)
        20                         -0.2489722              -6.7749
        21                         -0.2015531              -5.4845
        22                         -0.1260373              -3.4296
        23                          0.0351531               0.9566
       ...                                ...                  ...
        38                          0.6174868              16.8027
      -------------------------------------------------------------
                  HL-Gap            0.1493178 Eh            4.0631 eV
             Fermi-level           -0.3254674 Eh           -8.8564 eV

 SCC (total)                   0 d,  0 h,  0 min,  0.009 sec
 SCC setup                      ...        0 min,  0.000 sec (  1.380%)
 Dispersion                     ...        0 min,  0.000 sec (  1.699%)
 classical contributions        ...        0 min,  0.000 sec (  0.550%)
 integral evaluation            ...        0 min,  0.001 sec (  6.260%)
 iterations                     ...        0 min,  0.007 sec ( 74.143%)
 molecular gradient             ...        0 min,  0.001 sec ( 14.677%)
 printout                       ...        0 min,  0.000 sec (  1.110%)

         :::::::::::::::::::::::::::::::::::::::::::::::::::::
         ::                     SUMMARY                     ::
         :::::::::::::::::::::::::::::::::::::::::::::::::::::
         :: total energy             -19.460242239270 Eh    ::
         :: gradient norm              0.024909528394 Eh/a0 ::
         :: HOMO-LUMO gap              4.063143085551 eV    ::
         ::.................................................::
         :: SCC energy               -19.748333081914 Eh    ::
         :: -> isotropic ES            0.004853760403 Eh    ::
         :: -> anisotropic ES          0.000653522845 Eh    ::
         :: -> anisotropic XC          0.009953583285 Eh    ::
         :: -> dispersion             -0.010079838440 Eh    ::
         :: repulsion energy           0.288079316902 Eh    ::
         :: add. restraining           0.000000000000 Eh    ::
         :: total charge               0.000000000000 e     ::
         :::::::::::::::::::::::::::::::::::::::::::::::::::::

           -------------------------------------------------
          |                Property Printout                |
           -------------------------------------------------

    * Orbital Energies and Occupations

         #    Occupation            Energy/Eh            Energy/eV
      -------------------------------------------------------------
         1        2.0000           -0.8374760             -22.7889
       ...           ...                  ...                  ...
         6        2.0000           -0.5873176             -15.9817
         7        2.0000           -0.5478305             -14.9072
         8        2.0000           -0.5178482             -14.0914
         9        2.0000           -0.5146842             -14.0053
        10        2.0000           -0.5029420             -13.6857
        11        2.0000           -0.4982788             -13.5589
        12        2.0000           -0.4972603             -13.5311
        13        2.0000           -0.4481949             -12.1960
        14        2.0000           -0.4478191             -12.1858
        15        2.0000           -0.4451079             -12.1120
        16        2.0000           -0.4255953             -11.5810
        17        2.0000           -0.4110029             -11.1840
        18        2.0000           -0.4001263             -10.8880 (HOMO)
        19                         -0.2508085              -6.8248 (LUMO)
        20                         -0.2489722              -6.7749
        21                         -0.2015531              -5.4845
        22                         -0.1260373              -3.4296
        23                          0.0351531               0.9566
        24                          0.0387389               1.0541
        25                          0.0408039               1.1103
        26                          0.0811513               2.2082
        27                          0.0992356               2.7003
        28                          0.1160797               3.1587
        29                          0.1460778               3.9750
       ...                                ...                  ...
        38                          0.6174868              16.8027
      -------------------------------------------------------------
                  HL-Gap            0.1493178 Eh            4.0631 eV
             Fermi-level           -0.3254674 Eh           -8.8564 eV

     #   Z          covCN         q      C6AA      α(0)
     1  35 Br       1.068    -0.165   189.602    22.202
     2   6 C        2.907     0.085    26.097     8.377
     3   6 C        2.986    -0.034    28.843     8.810
     4   6 C        2.912    -0.027    28.675     8.781
     5   6 C        2.912    -0.029    28.732     8.790
     6   6 C        2.912    -0.027    28.677     8.781
     7   6 C        2.986    -0.034    28.842     8.810
     8   1 H        0.925     0.051     2.303     2.373
     9   1 H        0.925     0.044     2.401     2.423
    10   1 H        0.925     0.041     2.438     2.442
    11   1 H        0.925     0.044     2.400     2.423
    12   1 H        0.925     0.051     2.303     2.373

 Mol. C6AA /au·bohr⁶  :       2848.568187
 Mol. C8AA /au·bohr⁸  :      94766.267192
 Mol. α(0) /au        :         86.582863


Wiberg/Mayer (AO) data.
largest (>0.10) Wiberg bond orders for each atom

 ---------------------------------------------------------------------------
     #   Z sym  total        # sym  WBO       # sym  WBO       # sym  WBO
 ---------------------------------------------------------------------------
     1  35 Br   1.126 --     2 C    0.989
     2   6 C    3.938 --     7 C    1.408     3 C    1.408     1 Br   0.989
                             5 C    0.102
     3   6 C    3.990 --     4 C    1.439     2 C    1.408     8 H    0.969
                             6 C    0.111
     4   6 C    3.991 --     3 C    1.439     5 C    1.437     9 H    0.969
                             7 C    0.111
     5   6 C    3.991 --     4 C    1.437     6 C    1.437    10 H    0.971
                             2 C    0.102
     6   6 C    3.991 --     7 C    1.439     5 C    1.437    11 H    0.969
                             3 C    0.111
     7   6 C    3.990 --     6 C    1.439     2 C    1.408    12 H    0.969
                             4 C    0.111
     8   1 H    0.997 --     3 C    0.969
     9   1 H    0.998 --     4 C    0.969
    10   1 H    0.998 --     5 C    0.971
    11   1 H    0.998 --     6 C    0.969
    12   1 H    0.997 --     7 C    0.969
 ---------------------------------------------------------------------------

Topologies differ in total number of bonds
Writing topology from bond orders to xtbtopo.mol

molecular dipole:
                 x           y           z       tot (Debye)
 q only:        0.895      -0.002       0.003
   full:        1.381      -0.002       0.004       3.511
molecular quadrupole (traceless):
                xx          xy          yy          xz          yz          zz
 q only:        0.272       0.003       1.745       0.004      -0.000      -2.016
  q+dip:       -1.858       0.014       5.876       0.026      -0.001      -4.017
   full:       -2.024       0.012       3.823      -0.002      -0.001      -1.799


           -------------------------------------------------
          | TOTAL ENERGY              -19.460242239270 Eh   |
          | GRADIENT NORM               0.024909528394 Eh/α |
          | HOMO-LUMO GAP               4.063143085551 eV   |
           -------------------------------------------------
########################################################################
[WARNING] Runtime exception occurred
-2- restart_readRestart: Dimension missmatch in restart file.
-1- restart_readRestart: Number of electron missmatch in restart file.
########################################################################

------------------------------------------------------------------------
 * finished run on 2024/08/27 at 12:03:53.419     
------------------------------------------------------------------------
 total:
 * wall-time:     0 d,  0 h,  0 min,  0.067 sec
 *  cpu-time:     0 d,  0 h,  0 min,  0.275 sec
 * ratio c/w:     4.091 speedup
 SCF:
 * wall-time:     0 d,  0 h,  0 min,  0.010 sec
 *  cpu-time:     0 d,  0 h,  0 min,  0.105 sec
 * ratio c/w:    10.993 speedup

