35
 energy: -6.382504472552 gnorm: 0.000560621450 xtb: 6.6.1 (8d0f1dd)
C            1.26587124057918        0.87981329903343       -0.76503298684806
C            2.23604037150377       -0.09875055649954       -0.10234685491048
C            2.41463122003325       -1.38314041417681       -0.95125367183192
C            3.28728498222195       -1.16662233835991       -2.14247286360645
C            4.17845234915789       -0.17403128220083       -2.25804570948199
C            4.95396797573100       -0.04059852732294       -3.48421196560311
C            5.92499395931614        0.89119667298720       -3.73144937943376
C            6.50615056566183        0.79557953504986       -5.01565464177287
C            5.99123246858983       -0.21213611880696       -5.78655012777088
C            6.37628831429951       -0.53684458325132       -7.13489566949285
C            7.33855675122844        0.09568177592051       -7.87905152501957
C            7.49596698009355       -0.43067610894166       -9.17885784465526
C            6.66242130345530       -1.47295908389864       -9.45453986278325
C            6.62453572927048       -2.17782613492991      -10.71270703009235
O            7.31430135040091       -1.92612013969876      -11.66622110675272
S            5.66149207362384       -1.81799883034042       -8.07429325965128
S            4.76848285462978       -1.06422108723237       -4.88421914795460
C            4.38067570801008        0.84218951556800       -1.16130563093433
C            3.62186314182802        0.54565379377923        0.14597112635749
H            0.28010837549607        0.43380932537656       -0.90253765518039
H            1.62982649308807        1.17599605305604       -1.74854372208793
H            1.14432013346590        1.78678526824113       -0.17174554712672
H            1.81199318269817       -0.38870113602447        0.87669540461492
H            1.43139393005188       -1.75052691493368       -1.27016490124392
H            2.84801552556762       -2.17839045406506       -0.33227177615635
H            3.18171439511783       -1.84583964058261       -2.97167111861996
H            6.22060747981899        1.63972660075662       -3.01299271760520
H            7.28144803744983        1.46141090657548       -5.36076328936400
H            7.92147639408488        0.92364537283589       -7.50717799086913
H            8.20224586061829       -0.05248754088082       -9.90240865037309
H            5.92528588272966       -2.99567780023473      -10.81922391046387
H            4.08190240842750        1.82485969575575       -1.54472885643055
H            5.45506333725471        0.92333338252877       -0.95555207683814
H            3.49822917219541        1.46621842444029        0.73039006309324
H            4.22404005229789       -0.12281092952381        0.77324489688855
