45
 energy: -8.291387174760 gnorm: 0.000423799037 xtb: 6.6.1 (8d0f1dd)
C            1.18235626101081       -0.36824014163172       -0.63791471427497
C            2.39804982711909        0.17272850882113        0.09539499863377
C            2.95727867331283       -0.79861107647085        1.16706829767249
C            4.19815949833899       -0.18194406519327        1.86384469232057
C            4.80876704442462       -1.08372802336345        2.92341954822386
C            1.88051610410187       -1.15850558282366        2.19302210874753
C            1.17195445554989       -0.35156308626559        3.05371457017346
C            0.22541708488544       -0.92465896638004        3.90371493547788
C           -0.54771258336143       -0.10699652977934        4.82869868623156
O           -1.37853720336649       -0.52389493283712        5.59105462612844
C            0.01179462622553       -2.30272511606098        3.86978099274145
C            0.71587922205448       -3.11558478764066        3.01090455780655
C            1.65683789975367       -2.53984613578889        2.16487435929587
C            2.52792502781056       -3.15059801462360        1.16255129735836
C            2.67309246813856       -4.48009564190628        0.78184093773081
C            3.58068174088221       -4.79758371383290       -0.20021560005523
C            4.36208005074567       -3.81311700198555       -0.82920716937792
N            5.28325622534389       -4.15697857982024       -1.83339586242529
C            5.61334642872867       -5.54977868314610       -2.13110954836482
C            5.96170360520745       -3.13686216141517       -2.63112032244573
C            4.20365691156299       -2.47731796530877       -0.43339648767754
C            3.29951837477639       -2.15652373906046        0.54988581369524
H            0.80487861748079        0.33571557103009       -1.38253207966314
H            0.36688196067877       -0.58247192576572        0.05486875664187
H            1.41633397803238       -1.30033345457150       -1.15494716309438
H            2.15331444100359        1.12372239732105        0.58171628451389
H            3.19761440827092        0.40302094190721       -0.61765426683365
H            3.90810699898869        0.77767762535702        2.30624153916590
H            4.94399796470696        0.05895250898574        1.09803192331371
H            4.08658398865123       -1.31515428112438        3.70811503976760
H            5.67832987551095       -0.62692710851932        3.40054593598487
H            5.13069923693260       -2.03417744962482        2.49452993788984
H            1.34553830822175        0.70881316319169        3.06900448906788
H           -0.37026270198421        0.95897667025756        4.83989966352640
H           -0.72446439187018       -2.71834419459202        4.53657356801963
H            0.54779238034035       -4.17761859219544        2.98495851557069
H            2.07768730538899       -5.23992569178410        1.25656502917205
H            3.68747068806869       -5.82281886332268       -0.50612483392111
H            5.81734785761854       -6.09164439650111       -1.20953232611914
H            6.49962338651079       -5.61455434481705       -2.75920630801215
H            4.78507523788916       -6.02731543503351       -2.65110861898603
H            5.23903751151011       -2.41578681110593       -3.00861790785932
H            6.46776573477846       -3.58203047649356       -3.48545425372425
H            6.70040211681637       -2.61744546477936       -2.02364419960635
H            4.79510335320665       -1.70189495130516       -0.88216944243063
