92
 energy: -17.271435122409 gnorm: 0.000458751883 xtb: 6.6.1 (8d0f1dd)
C            0.90412873518798        0.43240305020386        0.17234407544878
C            2.17041453428101       -0.14239090442573       -0.44075529437679
C            2.93775736090833       -1.18148881172640        0.43646984048773
C            2.95525271504527       -0.85752257787892        1.95718646798724
C            3.72260382890478       -1.88242660763767        2.77777073570946
C            2.32824838516294       -2.56615794306180        0.22838368736253
C            1.06912399766739       -3.02507715456792        0.56432092831299
C            0.73392012429733       -4.33666250076023        0.29325755811164
C            1.65365391504109       -5.18150187293525       -0.29960544017684
C            2.91717559348819       -4.73114085442036       -0.62313422121977
C            3.27097660031128       -3.41053028902782       -0.36180397601740
C            4.53518632757187       -2.66097279699163       -0.55605622671122
C            4.36399188379153       -1.34613295295778       -0.09680851425694
C            5.42214189000266       -0.42962503419727       -0.14924768958280
C            6.66870739949050       -0.84376179336539       -0.64141549942713
C            6.85880241974658       -2.15919668856642       -1.08436457589976
C            5.78075461133200       -3.05778712110566       -1.05813178139130
C            6.22665485958029       -4.39472645202606       -1.65747742926540
C            5.43742399237964       -4.70473980805813       -2.96056074004880
C            5.53242325589877       -3.59392165237904       -3.99494016872432
C            6.14313300542682       -5.50712669607761       -0.56443585342453
C            6.16144442106478       -6.93931042010777       -1.07284053925334
C            7.69097035231308       -4.14390874253638       -2.00928986399066
C            8.60136237117283       -5.00018028515362       -2.58952699468744
C            9.92062340929563       -4.58819073454687       -2.79256285670206
C           10.92678099581967       -5.46169738953139       -3.37221974173186
C           10.71775729880624       -6.72199695345975       -3.78968168767596
C           11.73484970654089       -7.58025004264016       -4.33305034150829
C           13.06469710905060       -7.29699362513543       -4.48924874741757
C           13.81257493028351       -8.36499827842421       -5.05071354322600
C           13.06446332853199       -9.45895170313831       -5.32646695279229
S           11.41037300304723       -9.20209675693367       -4.89944220032120
C           10.27637091604014       -3.29364773214480       -2.39873282160578
C            9.36248985415416       -2.43264456114896       -1.83497528347561
C            8.04611748519293       -2.84376214574531       -1.64191579478362
C            7.63787327882461        0.34165407903295       -0.62072417430923
C            8.09853393133528        0.70397835926526       -2.06114404344659
C            6.94038976054141        0.95549567877980       -3.01392277045713
C            8.80040704422752        0.04041899152385        0.37615894654618
C           10.02942793186900        0.92439034351282        0.24477615335395
C            6.78037387589847        1.47961250635639       -0.07186578628062
C            7.10914487388108        2.80891815299892        0.11195374743631
C            6.15390672542466        3.68002601028501        0.59633952341943
C            4.87997106510868        3.22599374284859        0.88287170344397
C            4.54306105205778        1.90238977463404        0.68610426869525
C            5.49537788458623        1.00811814429906        0.20535195166722
H            0.41173556041899        1.13853758403480       -0.50056212118889
H            1.11437336656077        0.96854568824897        1.09938403061206
H            0.17841981550348       -0.34703727327015        0.40485150499938
H            2.85329574676502        0.66586446426812       -0.72076309591716
H            1.93440323285043       -0.62942680807601       -1.39501455207742
H            1.92169224515776       -0.79511288465301        2.31458210881613
H            3.38536666932331        0.13236681279718        2.12273140101714
H            3.29309728876005       -2.87985633635891        2.66751097794084
H            3.72297507289186       -1.64038074109098        3.84303398333378
H            4.76362919292950       -1.94565436394392        2.45508116544941
H            0.36738859861150       -2.37118964172657        1.05027065887505
H           -0.24659541769373       -4.70415797685265        0.54929560295422
H            1.38339429874965       -6.20494784535928       -0.50403215514715
H            3.61747883127702       -5.41413354720273       -1.06167528965495
H            4.38734234092160       -4.89050757216383       -2.72577603934503
H            5.81653080551696       -5.64041327873737       -3.38568801007668
H            5.13001615721856       -2.65703665911714       -3.60485874955232
H            4.98223829782366       -3.83313481304467       -4.90785654816611
H            6.56956013980769       -3.40330360092679       -4.27695580577173
H            5.25486697060086       -5.33871368427246        0.05246459051326
H            6.97785219215812       -5.34789484349858        0.12943531558905
H            5.31667202920184       -7.14171991925621       -1.73335689694387
H            6.10685749306481       -7.66042006273325       -0.25377815967804
H            7.07127460949558       -7.15887819273236       -1.63147593927951
H            8.28643753789463       -5.97968756632826       -2.89200410943862
H           11.91847510493320       -5.05571789278755       -3.45884791561865
H            9.73228877159973       -7.14408816681067       -3.71747498917180
H           13.50862192617252       -6.35505544058623       -4.20744937170218
H           14.87550959047806       -8.30777858152299       -5.23676246976704
H           13.43237512103256      -10.37303497451558       -5.75328475335279
H           11.29386453790655       -2.97137729752291       -2.54183211473410
H            9.68557610032840       -1.45686861230353       -1.53021790355200
H            8.73046360831870       -0.09039408689984       -2.46296043920946
H            8.73749283762328        1.59236067366953       -2.01117783454734
H            6.30612792050597        0.07160431028296       -3.10490577317718
H            7.28257874882083        1.21902479313209       -4.01733529183636
H            6.30529286641941        1.76916106493911       -2.65886924214942
H            9.08374386714219       -1.01326602413500        0.28923540689267
H            8.39103595820847        0.11974118690769        1.39086920750194
H           10.48828231776503        0.83007696863759       -0.74089278769097
H           10.79505921412257        0.66578306895029        0.98017385906366
H            9.78680333158271        1.97686542976286        0.39192239111810
H            8.09227862902125        3.16263047405564       -0.14218782573955
H            6.40068406530871        4.71886570559642        0.74444800858990
H            4.13954780406739        3.91542549855627        1.25533895200497
H            3.54068656225092        1.58346601366777        0.89286898541933
