77
 energy: -17.715288763786 gnorm: 0.000278397195 xtb: 6.6.1 (8d0f1dd)
C            2.05397013107126        2.76464103111211        0.16776268994820
C            3.51065243671519        2.44956704600869        0.50463496121715
C            3.66517727994598        1.33012398430637        1.54507611391430
C            5.12785937223741        1.00931053203328        1.88141170703239
C            5.29000395532267       -0.11554544386401        2.91276207820994
C            6.75483363328221       -0.43709211408289        3.22627218693482
C            6.98849919296030       -1.47663598647178        4.33399321441821
C            6.41567798671635       -2.87630900241465        4.01598700037485
C            5.00164284517843       -3.12551854838861        4.55657250818328
C            4.46595370401132       -4.52760070993941        4.24093306988566
C            3.06364633147523       -4.78635261446038        4.80882646673233
C            2.53045506521614       -6.19423286626572        4.50584489924940
C            1.13866849224611       -6.44832182850390        5.08310685879825
N            8.42943839759266       -1.57501461007327        4.65837742619355
C            8.92132525156294       -1.60544167681443        5.97554048246862
O            8.25843105657368       -1.50934327897254        7.00931249133762
C           10.35588622920383       -1.76449187957081        5.86228172519561
C           11.35585384063690       -1.87509189644974        6.87438419555832
C           11.04074935814554       -1.86154273619366        8.24904942586648
C           12.01314499939249       -1.98243283685573        9.20056155151743
C           13.37966454420631       -2.12263101835206        8.83956612118801
C           14.38956185379406       -2.25233879312204        9.81323437019310
C           15.70896603541487       -2.38617035763168        9.44094142211553
C           16.06657101827165       -2.39289090267985        8.10156613674668
C           15.10960850097512       -2.26739123302020        7.08208700633494
C           15.46345110302165       -2.26928058553745        5.66806978443129
C           16.78974358994081       -2.37609547293703        5.22045194620650
C           17.10484444377846       -2.37748628737326        3.87044711133601
C           16.11361672675033       -2.27523065312226        2.91947679135038
C           14.76210833083353       -2.16538344256926        3.30170532371927
C           13.72358416409031       -2.06136822806200        2.33838990802891
C           12.41624137258113       -1.95342708327484        2.71885140220265
C           12.04895246728753       -1.93625976935597        4.08042477964300
C           10.69119727413906       -1.81029311744739        4.50183642745457
C            9.47304828313038       -1.70994299783429        3.72374620893584
O            9.37365827557044       -1.73842981319410        2.49679351768173
C           13.06165890149272       -2.03626784171332        5.07902971382238
C           14.42918849063831       -2.15786179014908        4.68929164049492
C           12.71577999093832       -2.01414557510461        6.46997789452729
C           13.73827303510139       -2.13394535254088        7.45838329400050
H            1.96223729426531        3.56621284068841       -0.57880416445038
H            1.49611243863068        3.08466477456857        1.05669807979283
H            1.53610372401491        1.88566225917164       -0.23585475422053
H            4.01887663418367        3.35759561511022        0.86864967560611
H            4.05799552349667        2.17256991381249       -0.41128374985206
H            3.16203168728084        0.42065810443369        1.18485826393787
H            3.12634738712627        1.60357665679256        2.46439290027778
H            5.62930791715256        1.91786595084349        2.24544249615611
H            5.66607642730072        0.74208181040460        0.96046676260255
H            4.78220437218154       -1.01670539288525        2.54446960315356
H            4.76434583021389        0.15499764400604        3.83918835043708
H            7.27823999580942        0.48793415102259        3.50121753756405
H            7.26081452536589       -0.78374353945351        2.31765851750988
H            6.50869699108178       -1.11432673540479        5.25460335666752
H            7.09403756950600       -3.62893150588613        4.43919519586039
H            6.44823187663673       -3.04664553211855        2.93285392910362
H            4.30651286020100       -2.37224418695310        4.16491581571615
H            4.99566608038884       -2.96942661770462        5.64443055256900
H            5.16442931382031       -5.28354631628621        4.62794155738397
H            4.45841395688616       -4.68297143601621        3.15231872863058
H            2.36273511375856       -4.03426907119368        4.41742088026662
H            3.07140299646382       -4.62265188521202        5.89662930571175
H            3.24131972711449       -6.94320364262782        4.89160348609735
H            2.52234687212616       -6.35372427370049        3.41514572520463
H            1.12997761041694       -6.33602292649623        6.17448312148147
H            0.77164192548475       -7.45963711260975        4.85817276940932
H            0.40249550554554       -5.74003082357973        4.68305483100084
H           10.00698710122601       -1.75828592055210        8.53643034900733
H           11.75072424435900       -1.97395096967915       10.24847039342591
H           14.11677048262062       -2.24740295798930       10.85946753125679
H           16.47397697712008       -2.48724107076096       10.20187299290872
H           17.10927767222887       -2.50101472777917        7.84791434612181
H           17.59244010898760       -2.45679243953468        5.93629891574004
H           18.13999700776990       -2.45979855740667        3.56038593376653
H           16.36547644234656       -2.27728382230671        1.86801964500620
H           13.98465487827003       -2.06813694906236        1.29016447908355
H           11.63772496715388       -1.87392555684073        1.97757478662682
