56
 energy: -12.206425490023 gnorm: 0.000930526032 xtb: 6.6.1 (8d0f1dd)
C            0.99337537805333        0.39172016783296        0.82962636183240
C            0.33779966411294        1.50196903771510        0.45136177880694
C           -1.10429951912966        1.66660896706312        0.45100396668941
C           -1.66309050751859        2.83667315172364       -0.07264508737426
C           -3.02119641351289        3.03573506863033       -0.06726673377051
C           -3.87490361249120        2.07456129106883        0.46547205824454
C           -5.31241765354348        2.28522576607002        0.49750423677733
N           -5.93414236936896        3.36423342297462        0.01187532686510
N           -7.20469677864977        3.22636983208929        0.21389606441560
C           -7.40722833924189        2.05972478400524        0.83213937475673
C           -8.71084971045989        1.55359909331245        1.23988567441562
C           -9.86796132233866        2.28776068513466        1.00386102156141
C          -11.09399203550172        1.80270333624211        1.39931155047603
C          -11.18147695674571        0.57969869665091        2.03488768576371
C          -10.03924488232613       -0.15855582260563        2.27384661829206
C           -8.81171052419461        0.32416057557445        1.87961161547467
O           -6.22184939238496        1.42475164905627        1.02772972693005
C           -3.32913028188567        0.90641537356199        0.98597848016698
C           -1.97109140254334        0.70416515260170        0.97901354779716
C            2.43586986680294        0.23737035705012        0.87116517562701
C            2.98410412446860       -1.00851500668256        1.19184429909371
C            4.34318079961627       -1.18611729485801        1.26435595822530
C            5.20877773735543       -0.12392994923923        1.02235503104805
C            6.64866106308295       -0.29527659767643        1.11909137048593
N            7.26173073961366       -1.45079498031160        1.39306965064863
N            8.53807936789806       -1.23982164599443        1.41157411605398
C            8.75349477486788        0.05193059115391        1.14790257456351
C           10.06778692275424        0.67677140358842        1.08210018593924
C           11.22307249014210       -0.06501466225594        1.30292539558825
C           12.45949102544062        0.53684966141331        1.24411214030464
C           12.55945726063237        1.88544993529056        0.96440494728774
C           11.41911782586519        2.63213870402006        0.74295814452980
C           10.18129989267024        2.03273814152507        0.80104296853411
O            7.57018693706438        0.69067732401027        0.95239896367478
C            4.67326602052265        1.11826707771864        0.69958723950437
C            3.31396469355761        1.29765525900662        0.62412747208208
H            0.42055455101246       -0.46612103462356        1.12955702276003
H            0.90888584325692        2.34849764494424        0.11783770709787
H           -1.01186859006613        3.58951011167920       -0.48222497081475
H           -3.44549170017403        3.93981629474483       -0.46804073767140
H           -9.78661282511344        3.24021427613918        0.50948054999230
H          -11.98571953958799        2.37845839910553        1.21350795566523
H          -12.14167572974889        0.20130423998447        2.34490205875225
H          -10.10829848611498       -1.11255612785548        2.77032277218411
H           -7.91279299332631       -0.23970967574728        2.06073351999877
H           -3.99400313728240        0.16786890658936        1.40010501769468
H           -1.57225997360445       -0.20114320812636        1.39918445223627
H            2.32382078973238       -1.83599756282562        1.38651341828536
H            4.75927939564708       -2.14633067603944        1.51528543906773
H           11.13213972762509       -1.11490547880269        1.52126332117099
H           13.34978387925217       -0.04513007814417        1.41707716961095
H           13.52794009856119        2.35565091834773        0.91949390583325
H           11.49763332674883        3.68458715829384        0.52540640476527
H            9.28363872343078        2.60240008958772        0.63229069397667
H            5.34780676044829        1.93702524185325        0.51628490841102
H            2.92398499661823        2.27013201434801        0.38442048966821
