84
 energy: -16.764714682080 gnorm: 0.000494025332 xtb: 6.6.1 (8d0f1dd)
C            0.45758109995766        0.02738349026410        0.07489505384142
C            1.97732427646904        0.01514671027721        0.06373974726241
C            2.57459118719813       -0.63067166600638        1.31414346853616
C            4.10216092578478       -0.64480297733260        1.30787526829865
C            4.69911236863067       -1.28180821498269        2.56016354517201
C            6.21618606477260       -1.29759703509405        2.55515556535272
N            6.74158317373671       -1.90251571981676        3.76251876434409
C            7.10485566176542       -1.04964834992047        4.80611518618996
O            6.97812697402411        0.15824864149883        4.70991265994426
C            7.64055265819678       -1.66581428497759        6.01800002682834
C            8.03792918236664       -0.87113349846431        7.06105140418641
C            8.56579554868669       -1.40069478833318        8.24116219998598
C            8.93987776983648       -0.50101085929644        9.25141859882865
C            9.30099146096778        0.15990355004177       10.21294954070715
C            9.76715029870723        0.68275582330494       11.43205543051235
C            9.80140269150261        2.03047510734340       11.73808614312298
C           10.27655765118750        2.42666718667472       12.96499582487393
N           10.71584452618655        1.60426437697724       13.90317271446184
C           10.67904721721359        0.31780533389281       13.60033170251258
C           10.22415480458773       -0.18466747998694       12.40666316552009
C            8.70188112845028       -2.78436130490427        8.37432986386023
C            8.29158310392582       -3.62703943966203        7.30474809682505
C            8.40818511480456       -5.03498264012284        7.40216912175809
C            7.99215959187431       -5.83083616395397        6.36710624257843
C            7.45238403116321       -5.30220560199392        5.19194520109569
C            7.04567201861490       -6.20187512126157        4.19404951556939
C            6.63842328718122       -6.85372756145492        3.24472651939948
C            6.10193338182892       -7.35397562793769        2.04494205928115
C            5.97141759280370       -8.69814726242041        1.74948801843521
C            5.42731638955854       -9.06872084368448        0.54327876766889
N            5.00686259266739       -8.22441999985191       -0.38405278511667
C            5.13682209069668       -6.94156787036230       -0.09194918217692
C            5.66446197462905       -6.46400762325802        1.08171217348714
C            7.33390928648996       -3.91765384189354        5.05142506840986
C            7.75373656312070       -3.07413732012776        6.11679056480920
C            6.78588010156152       -3.30146584708335        3.82782323454776
O            6.37049783135467       -3.94803569626664        2.88219245760528
C            8.97214645834526       -5.64963213888555        8.60204354533898
O            9.06046955379030       -6.85988872631477        8.71125577482596
N            9.39909114991297       -4.79438151670561        9.62010712925793
C            9.99292374195396       -5.40223910588495       10.79585668996225
C            8.96579001656189       -6.16528667223033       11.61282610801110
C            9.57018188515796       -6.88144996134542       12.81805468152962
C            8.54410708954051       -7.69022144119810       13.60981712867551
C            9.15595753884029       -8.43338443155081       14.79754514097652
C            8.13468807277074       -9.24979919448294       15.57227529362803
C            9.26390661977931       -3.39935505636677        9.59238119756703
O            9.61254601081190       -2.75283205276849       10.56467350787622
H            0.04468074835141        0.49181528556279       -0.82288781128145
H            0.07392474420588        0.57787781821804        0.93528680211313
H            0.05541595288740       -0.98514161748367        0.13519119629387
H            2.36215335255489        1.03847368080377       -0.03389842189047
H            2.34411159015997       -0.51201661434565       -0.82629352528842
H            2.19780433773938       -1.65518665672880        1.41559330027090
H            2.21570302387280       -0.10509825839730        2.20680746305397
H            4.47951724535320        0.37909098785375        1.20258133995697
H            4.46240736664900       -1.17562732926594        0.41897110561305
H            4.33344781073148       -2.30938151335449        2.67149441036002
H            4.35000274980904       -0.75263120682467        3.45435885661871
H            6.61892584948825       -0.28191894897788        2.48004049090694
H            6.59915634421824       -1.86166070387938        1.69860575950143
H            7.93878971504895        0.19527692405478        6.95802088065358
H            9.45673576110048        2.75031711591873       11.01582737365637
H           10.30340683182724        3.47888661293859       13.20488196087628
H           11.03512599215290       -0.36248356379425       14.35904980521352
H           10.20902915098536       -1.24255131897752       12.20090713609501
H            8.08955152172020       -6.89728188842015        6.47091762088635
H            6.29470824090509       -9.43519444186905        2.46419967918053
H            5.32434733515370      -10.11818004430996        0.31203326549403
H            4.79842205289263       -6.24322454465687       -0.84224898333408
H            5.74841140045855       -5.40846724819449        1.28246996720019
H           10.46411302320723       -4.61404306547664       11.39225610036795
H           10.79200076301719       -6.06991462136747       10.45804172230802
H            8.46830260022108       -6.89161450552470       10.95889599387867
H            8.17493854176867       -5.47868081897236       11.93601064738345
H           10.05473410691625       -6.15103203128519       13.47622731837142
H           10.37684822860371       -7.54332805617783       12.48158955013533
H            8.04993180010839       -8.40717793825329       12.94381434149870
H            7.74382537578702       -7.02820544618810       13.96045809019584
H            9.64628435751950       -7.71151979547328       15.46294390324587
H            9.96428463423563       -9.08360195057748       14.43934770515934
H            7.34065018029641       -8.61512744318354       15.96835274664205
H            8.58551441190959       -9.77658426965986       16.41560439770686
H            7.66123309794018       -9.99711786613099       14.93391066450888
