40
 energy: -8.955108632360 gnorm: 0.000853595855 xtb: 6.6.1 (8d0f1dd)
C            0.66624627809384       -0.21878028526500       -0.81404942237365
C           -0.10196435806651       -1.34919117154847       -0.56301862996782
N            0.25864122713221       -2.42693205206156        0.23244389171180
C           -0.80481736993682       -3.33407264213050        0.33247519168596
C           -1.02600302747859       -4.53394648023371        0.99002541012827
C           -2.26500417181457       -5.16371318962395        0.84194033874105
C           -3.28090627127620       -4.63256751947262        0.06725756585040
C           -3.09825976697537       -3.40838860528150       -0.61451288547458
C           -4.01046399076380       -2.70267040229032       -1.42986041680644
C           -3.65158565309823       -1.49559112800704       -2.00205264368477
C           -2.39316226099550       -0.91868233406585       -1.80897251808622
C           -1.46491587824838       -1.58302127767235       -1.01817190692013
C           -1.84687892802678       -2.80700055897703       -0.45015156597066
C            2.01025582200948       -0.11550222899016       -0.47618005643261
N            2.83379066618548       -1.15223773308027       -0.06279436412243
C            4.14994713154814       -0.69495921836499        0.09051915069656
C            5.36416998852904       -1.26694598615218        0.43612619138863
C            6.50282438515245       -0.45710467760050        0.47301640903521
C            6.46490523332246        0.89274670933196        0.17198588186485
C            5.24895234695923        1.51285369941749       -0.19344162685961
C            5.01208587568742        2.85815859067944       -0.55279140092906
C            3.74197344804810        3.27663263067876       -0.90615297093024
C            2.64568458461692        2.40986069293751       -0.92873258686904
C            2.83445072808800        1.08003100263358       -0.57603154632470
C            4.12834477424386        0.67711538049181       -0.21531187152655
H            0.19583254247338        0.62040414447265       -1.29302040509438
H            1.05661803768757       -2.43799488618421        0.87191613211898
H           -0.24829300744190       -4.96207637145110        1.59660037117693
H           -2.43363801365582       -6.09764586337830        1.35231373973359
H           -4.22384007239853       -5.14263691772612       -0.02240678472835
H           -4.98938189803094       -3.11700283456530       -1.59565288244278
H           -4.36796060794311       -0.97818527419862       -2.61873650088693
H           -2.13619242710422        0.02272710381038       -2.26098811124979
H            2.59892044820580       -2.14536916932717       -0.12782113399742
H            5.41353370564856       -2.31501849255915        0.67108039636813
H            7.44517182497927       -0.90351266871415        0.74483903815787
H            7.36164044906983        1.48603467747337        0.20717439689036
H            5.83563246498856        3.55039191599448       -0.55157216786932
H            3.59028859093150        4.30836770047293       -1.17763113022374
H            1.66742714965340        2.75609572052681       -1.21112857577319
