39
 energy: -8.374551446895 gnorm: 0.000638563458 xtb: 6.6.1 (8d0f1dd)
C            0.95407114606805       -0.39645566489568        0.31715739761660
C            2.37103252109754       -0.03800457168744        0.59765103461628
O            2.64041054663147        1.10126654836938        0.90666266012874
N            3.33399188543343       -1.03521000723859        0.48698133924692
C            4.70421591368256       -0.88281317281822        0.71882464802563
C            5.56905754692273       -1.96742646237088        0.56646698970088
C            6.91270137751388       -1.82624506882262        0.80068583891343
C            7.44690945533300       -0.60248293122734        1.19503249362292
C            8.87996886999933       -0.51029110246535        1.43764692579474
C            9.57786235855904        0.60821559394211        1.81893386272599
C           10.93639175444604        0.24478748895233        1.93744767734937
C           12.04718302024830        0.97680136588079        2.26518597528290
C           12.10238887554885        2.33545988758100        2.73485696223026
C           13.30645920740843        3.04662006016661        2.64561910212799
C           13.40021601763149        4.33930477922704        3.09455240900693
C           12.30196070987565        4.97514021951497        3.66404405370699
C           12.39851291162676        6.29314219731644        4.12278145136831
N           12.47284041292877        7.38866776798379        4.50395670185097
C           11.10848910443480        4.27012814131309        3.78022578292502
C           11.00938790045204        2.97799585095074        3.33005442186969
C           10.99416935796172       -1.18031053575944        1.57137244067961
O           12.02668051169171       -1.82224243625126        1.54254950890942
O            9.71855950250546       -1.59865411638738        1.29098890904152
C            6.58589174729558        0.48396516741526        1.34578863685582
C            5.24335983026447        0.34122616237068        1.11060128974992
H            0.59933762680511        0.13524235468471       -0.56457828408740
H            0.32379579260807       -0.11046654630128        1.15808768676076
H            0.83545374854490       -1.46561814717740        0.14739503580897
H            3.01950941342696       -1.96102457726487        0.21325495444569
H            5.16779123170165       -2.91859046022534        0.26427991781783
H            7.58330104916871       -2.66131622413274        0.68590567186572
H            9.16554781591172        1.59250307029531        1.92995194301627
H           12.98938378008268        0.46698971610874        2.15199570324690
H           14.16418929867610        2.56677929760987        2.20651921847477
H           14.32806270661513        4.87967952811041        3.01293262234187
H           10.26357507221680        4.75422102043121        4.24000399925487
H           10.09827368782463        2.43215238347141        3.48949849176086
H            6.97989802928232        1.43728501982966        1.64940127939357
H            4.57511826158211        1.17593840350073        1.22487324655063
