50
 energy: -8.955218753617 gnorm: 0.000483243928 xtb: 6.6.1 (8d0f1dd)
C            2.23521331250888        2.48120618318812        0.04368947130758
C            3.25810972497281        1.39487327449236       -0.01072484958808
O            3.89223981284347        1.16515391777218        1.00059086491894
C            3.49295571591828        0.66996286939181       -1.25370797379894
C            4.32355177811614       -0.47019295398383       -1.29471241275804
N            4.42814533885549       -1.37554794727591       -0.26263878170344
C            3.54898196058848       -1.59505881200685        0.88695193242633
C            2.51520217866312       -2.69561210529165        0.65963135553679
C            1.48991281130829       -2.39432959429435       -0.45791828501952
C            2.02448121411154       -2.76915886841901       -1.83964688447421
C            0.16313270523125       -3.10682730115778       -0.18803831615345
C            4.43173785529147       -1.90455283785467        2.08225414311336
O            4.56334925519810       -3.05663922423221        2.43162979088609
O            5.03690811003151       -0.82534493683618        2.63398040769676
C            4.95716791412075       -0.80138103158036       -2.54826985097988
C            6.01428996180236       -1.71509625305035       -2.64815659217488
C            6.57997064254632       -2.01463185962433       -3.85546325268977
C            6.11839384932734       -1.41798270110797       -5.04031473744306
N            6.70335057992213       -1.71587509721992       -6.28116865511590
C            7.82178587329674       -2.65070268608161       -6.39483885329498
C            6.26606760219655       -1.05272892412246       -7.50899301482924
C            5.07082739860310       -0.51138642611575       -4.94296004314632
C            4.48762124367251       -0.18736358242856       -3.72452184453599
O            3.44660807817451        0.72470001350597       -3.71494165994319
C            2.96398077503895        1.19608874784814       -2.51010314819128
O            2.08820004053253        2.05198608683927       -2.48228796886461
H            2.14559175093620        2.86437355661377        1.05926200881980
H            1.26223683070888        2.11371546427657       -0.28162344557087
H            2.51713787734876        3.30236454981784       -0.61554627929629
H            5.03046663216911       -2.18851575228477       -0.35764895772959
H            3.01397367825651       -0.65916620914855        1.08484993519052
H            1.98784910565822       -2.86711447060804        1.60474712613936
H            3.03358603423459       -3.63512071008915        0.44882850013566
H            1.30065648910911       -1.30640962022985       -0.44377244558568
H            2.19498875537254       -3.84326029521064       -1.90715149632150
H            2.96955733711179       -2.27645664019604       -2.05544312887912
H            1.32128221283096       -2.49675273694261       -2.62735156819704
H            0.30481609475417       -4.18717004792450       -0.16936541190198
H           -0.57375870921307       -2.88404989476416       -0.96031938901107
H           -0.26135936998805       -2.81391458480084        0.77284550721886
H            4.75746232318012       -0.02581132252199        2.12937888617359
H            6.41454135399819       -2.15943967941087       -1.75491438018942
H            7.39932019413514       -2.70913336963568       -3.90051508677058
H            7.54009686693905       -3.62027735920972       -5.98997550577166
H            8.68100085387155       -2.26971161206793       -5.84690324316731
H            8.11327875516221       -2.79028868370429       -7.43317596328766
H            5.22042087186337       -1.28191301353984       -7.70372390112234
H            6.85176895761592       -1.38271046707114       -8.36392650631565
H            6.38416422194530        0.02457646428068       -7.41157452370364
H            4.68639514913058       -0.02986151598238       -5.82115157204222
