37
 energy: -7.178930906340 gnorm: 0.000592077907 xtb: 6.6.1 (8d0f1dd)
C            1.54519403983707        0.44378115983225       -0.31602952158496
C            2.60983657952463       -0.17581829419385        0.52476259183064
O            2.95729717199471        0.36229972501138        1.55229044177792
C            3.23606315139881       -1.43876418090883        0.09977175243154
C            4.19637045534735       -2.01632256917984        0.92325683280203
C            4.80536989307008       -3.19667712392051        0.57750861351951
C            4.47410518050796       -3.84521807061759       -0.61309950436670
C            5.09458180322789       -5.09463864971583       -0.98921286445214
N            4.79764981273982       -5.73694879715862       -2.08296165205675
C            5.51931181567851       -6.90699284089791       -2.20934698932087
C            5.42794355440491       -7.81115038889711       -3.27739368612868
C            6.19452708137835       -8.94244383855633       -3.27222802694371
C            7.08416117735630       -9.23911783111969       -2.21185319695567
N            7.82723135167355      -10.44187128999035       -2.23086963162179
C            8.08817638698654      -11.15630880631650       -3.47981384815642
C            8.17058158500930      -11.17297178287703       -1.01438007521139
C            7.19507032051357       -8.32606096856986       -1.16257560034656
Br           8.44057459610232       -8.53011027097177        0.23199260394475
C            6.41400447248603       -7.18230011224900       -1.16164736622191
S            6.32715768129065       -5.89402118094344        0.00059015139978
C            3.51412250861368       -3.26226760351869       -1.44069628870301
C            2.90564740322921       -2.08154973820742       -1.09300868627857
H            1.14766286859280        1.32577719731030        0.18489984154261
H            0.71981482933041       -0.24863106061438       -0.47987827558484
H            1.94102983140139        0.75553622020323       -1.28223379989225
H            4.44807762429717       -1.51416385284942        1.84208424300170
H            5.54497413114670       -3.63667250562770        1.22286544697510
H            4.74663163120939       -7.60043850641895       -4.08210002376296
H            6.10342901590447       -9.64481840812144       -4.08116681716382
H            7.23284701058347      -11.77448827304801       -3.74480041319074
H            8.96269262176512      -11.79534406957220       -3.37371824704864
H            8.28128005862931      -10.44856292238166       -4.28345952618768
H            7.48702519239263      -10.90458834598299       -0.21058638600064
H            9.18823144628191      -10.93368877311702       -0.71076440166339
H            8.09531753710859      -12.24643176766804       -1.17996733500510
H            3.25733814955843       -3.76067839995960       -2.35925191981269
H            2.16735002942757       -1.64810307818905       -1.74428843556462
