63
 energy: -10.549325910514 gnorm: 0.000238944636 xtb: 6.6.1 (8d0f1dd)
C            1.38220872190633       -0.26915085771282       -0.54425337784108
C            2.53317922148717        0.10134823314922        0.32704976796367
O            3.05657602967735        1.18532172835686        0.20345559940460
C            3.04424653978028       -0.83298783243918        1.33882088915255
C            2.44757956576422       -2.09923129742494        1.59617353554960
C            2.96331924373475       -2.93039272083859        2.52818946938108
N            4.08216196191206       -2.54385029824200        3.24440576354814
C            4.83500497010769       -3.18163405706119        4.21610568271588
C            5.89163803529421       -2.36873244322904        4.59958885578034
C            5.80852180234232       -1.16637982612636        3.88149047184397
C            6.69810044505266       -0.00558681157417        4.00384005079410
C            6.20242447995827        1.29606431438648        3.90754235226554
C            7.03174130863850        2.38158707794829        4.02992929355631
C            8.39823880897495        2.20922326082280        4.25880102434950
O            9.26552690929245        3.27194509409698        4.39245950705947
C            8.89522436590970        0.90875780881371        4.35898810320094
C            8.06331150153688       -0.17396353898541        4.23667887333820
C            4.67774237935115       -1.30301382648909        3.02838986114099
C            4.14884527752716       -0.44874129388796        2.05310663725338
C            6.69747960038180       -3.08603922151316        5.64929581979156
N            5.95425135771140       -4.36496550897311        5.79223747435312
C            6.36699361369586       -5.53815662125229        6.56866037919180
C            6.84687288655550       -5.19189063599944        7.96939552466218
C            7.24521918139571       -6.41108252367009        8.78841389534141
N            7.78576538255878       -6.06122120834044       10.08700334540509
C            7.54489724091157       -6.85485456047044       11.19145382415265
O            6.76381178563315       -7.78555331955280       11.10914547672313
O            8.23008955337385       -6.53008141228083       12.32867369605223
C            7.96026248130075       -7.40371494417893       13.45420357572537
C            6.47468761335424       -7.31747036018709       13.82901459686187
C            8.35347429491152       -8.84471997431340       13.10010680303639
C            8.82118216648481       -6.90628846072602       14.62445092754381
C            4.85636731661318       -4.44945161300947        4.94182224092295
O            4.08626673772821       -5.38373418679587        4.81810484506636
H            1.19912174838830        0.53247005951213       -1.26007288500347
H            0.47386244166447       -0.40986863983826        0.04100579327522
H            1.58873309680492       -1.17981295728742       -1.10608168861801
H            1.57799560071663       -2.39574070967896        1.03676258912027
H            2.53892888474173       -3.89750414485554        2.73862901574331
H            5.14665233241132        1.44473334459061        3.76323137566929
H            6.63470024664442        3.37846327183664        3.95508047198392
H            8.79413101591653        4.12425511037657        4.29090388372911
H            9.94989886445825        0.78229771127735        4.53070718210757
H            8.46348099408261       -1.17036272870016        4.30176917753484
H            4.60983650748607        0.49676614648550        1.83281655144009
H            6.70817013608306       -2.53827650585846        6.59447702042630
H            7.72109526240378       -3.27755772603049        5.31990514073296
H            7.14541669820674       -6.05960082559341        6.00582229209467
H            5.50874298177027       -6.21644646712676        6.61096622090004
H            6.06670429220106       -4.63433997642589        8.49869298791126
H            7.69762728123527       -4.50612641602984        7.90436744987580
H            7.98714527527569       -7.01568937402916        8.25522613928457
H            6.38102180126904       -7.06535819946499        8.95580559805128
H            8.50601428145630       -5.34046492486934       10.11598313356997
H            5.85739959342460       -7.65659804897229       12.99795115236231
H            6.19987094334293       -6.28745200854647       14.04838092597560
H            6.24857042326754       -7.93078486749134       14.69963908887029
H            7.75394305321186       -9.20416739596045       12.26463288594118
H            8.20436955698414       -9.51567127484727       13.94442460572497
H            9.39917837644287       -8.88871775057418       12.80154235763316
H            8.57178391137598       -5.87400203129795       14.86292315350175
H            9.87532276988849       -6.93626706342248       14.35474696723990
H            8.67322884797296       -7.51451376949537       15.51531662763937
