44
 energy: -8.465487797115 gnorm: 0.000418692287 xtb: 6.6.1 (8d0f1dd)
C            0.96995788675551       -0.18594098621878       -0.21320802813668
C            2.48988095132848       -0.08938753664895        0.01058633928095
C            3.03564382117099       -1.50547294562979        0.28688947238897
C            3.18282334682438        0.46193556078439       -1.24887362814149
C            2.79130430021150        0.79063417678749        1.20616565345989
C            2.50060250346663        2.10308732419763        1.34304696286819
C            1.79311112341301        2.97507456182647        0.42816103364922
C            1.66262044367469        4.20158757852434        1.00222069079282
C            1.00461319634633        5.37526347097602        0.40121824399354
C           -0.02099096180312        5.22219994525404       -0.53056984877790
C           -0.63446412858498        6.32166433198264       -1.09102974851397
C           -0.23495215176670        7.59446321069030       -0.73513222786164
C            0.77977944651882        7.76525544308455        0.18530445640375
C            1.39329818018399        6.66784346080566        0.74967638528597
C            2.28644816426932        4.16198884868983        2.30263231774959
C            2.80608978809872        2.92686995228326        2.52461459871458
C            3.53526507993683        2.50739711329896        3.73510227370713
C            3.07499195338131        2.86999738592267        5.00097418871751
C            3.75347135422942        2.48192066241621        6.13548355859690
C            4.90686099850559        1.73003356836374        6.02967096626237
C            5.38338155371624        1.37045837269706        4.78447909826418
C            4.70747649276033        1.75616629940354        3.64765128800048
H            0.74124142244221       -0.84762987959696       -1.04845787309042
H            0.53241493064773        0.78622884111633       -0.43091939821305
H            0.47513938200219       -0.58094344190776        0.67377896793105
H            2.84110521483337       -2.17006892585297       -0.55465474448065
H            2.56750929294250       -1.93760099341387        1.17117774883765
H            4.11247631254266       -1.48166804288203        0.45379990780463
H            3.00691598688195       -0.18848812015831       -2.10549423781334
H            4.25952048724164        0.53215169221534       -1.09554378218008
H            2.82001684717702        1.45460673220746       -1.50692904700245
H            3.27160460676730        0.30379119557979        2.03537138138843
H            1.42818832840940        2.71667889727149       -0.54851548503547
H           -0.34041287351745        4.23063652740984       -0.80130948827607
H           -1.42897742558685        6.18766861263667       -1.80721597510862
H           -0.71492808672676        8.45361247134884       -1.17505153420732
H            1.09441438913843        8.75873879409529        0.46130226188293
H            2.19144387438402        6.80171387912847        1.45925629867110
H            2.34148285990774        4.98834395299179        2.98958091282740
H            2.17248178489059        3.45138394720482        5.08119424396346
H            3.38283842875250        2.76448608098533        7.10746972084409
H            5.43625417370747        1.42644993139682        6.91832098617106
H            6.28774292779247        0.78973041109021        4.70194514689185
H            5.09246379272752        1.49777763764162        2.67615994148946
