42
 energy: -8.385780642040 gnorm: 0.000457579541 xtb: 6.6.1 (8d0f1dd)
C            1.11372417885595        0.05548513920679        0.26707716542783
C            2.63655568589213       -0.00221560728472        0.10610379467285
C            3.22211472950550       -1.04862563909499        1.05764182225581
C            2.99598635727993       -0.34638936733259       -1.34165091340447
N            3.21590987011418        1.31748870467870        0.44294064293229
C            4.57474393225807        1.56109682392573        0.33779173696116
O            5.36382738218866        0.67158918023551        0.05559279710292
C            5.03821598475907        2.95043905462180        0.55630977053741
C            4.41671906697795        3.73940316379520        1.51954915360716
C            4.79972140579978        5.04036276588766        1.74164294026449
C            5.82865861678136        5.62019950699329        0.99642287422092
C            6.24262766107478        6.97343478776497        1.19331111677616
C            7.23294754593936        7.51906953669760        0.45235425489744
C            7.90489488241703        6.76187945817161       -0.55738066505759
C            8.92332293062676        7.30412102092658       -1.34270574372339
C            9.54972547596778        6.54510210729316       -2.30928302596637
C            9.18508504055988        5.23185340673709       -2.52029888448332
C            8.17273649498930        4.64187597242047       -1.76189075149384
C            7.77084364583112        3.28336843316249       -1.94776160516153
C            6.78307768126813        2.74144269649151       -1.20210177659747
C            6.09367701381193        3.49350135105468       -0.20461582094911
C            6.47919438248944        4.83901185360844        0.01206269428915
C            7.52281860779308        5.41499860409723       -0.76989934893165
H            0.66020970907499       -0.90881229272641        0.04036122827981
H            0.68229912225690        0.79789863860687       -0.40312983804510
H            0.84488341721688        0.32605223174083        1.28727334737164
H            2.84560132343792       -2.04541159662048        0.83106219627035
H            2.96989750394779       -0.81056830733275        2.08992212780090
H            4.30822347885651       -1.06223458393888        0.97439487091719
H            2.59978464630765       -1.32021386417283       -1.62679095800818
H            4.07816922953490       -0.36674709576269       -1.46352323853547
H            2.59694684106557        0.40190327196747       -2.02480089791233
H            2.54960169973613        2.09055569933314        0.47338780148383
H            3.62582417255531        3.30734748696418        2.10778091545576
H            4.30476136028450        5.62848113960831        2.49503005277012
H            5.74652773941526        7.55792091971345        1.94872374857068
H            7.53096578831942        8.54053852511974        0.61333247620210
H            9.21559654581102        8.32800924778983       -1.18557841867841
H           10.33288865719386        6.98304696586419       -2.90628071969178
H            9.68041748397355        4.64709985800074       -3.27606251562760
H            8.27639174446748        2.69212158800683       -2.69132320485658
H            6.50784096336243        1.71044921378001       -1.33433120194393
