114
 energy: -22.877980828975 gnorm: 0.000404149256 xtb: 6.6.1 (8d0f1dd)
C            6.05649131539826        0.96073505138859       -0.65146206986885
C            7.01424086613505        1.33578977175643       -1.79978577595619
C            8.44560474940759        1.39700604217016       -1.23590002007303
C            6.92668500861080        0.24159397513005       -2.87906755788618
C            6.65768612518820        2.69645663306612       -2.41936594940905
C            7.39597510560347        3.18718673748124       -3.48954974230265
C            7.12667338076208        4.42082601382226       -4.04315913956568
C            6.10252038082469        5.21717490747177       -3.54008421909445
C            5.84107523578340        6.57666881241476       -4.06603500833327
C            5.84022503632170        6.86198029363652       -5.43321364105986
C            5.56105347833714        8.13032941712524       -5.89357000881207
C            5.27450294496828        9.16195674423353       -4.99890678679835
C            4.89342808096574       10.53965768035443       -5.41466293606676
C            5.64094503539695       11.62708922409810       -4.99051912303718
C            5.02532809289629       12.90397606628517       -4.90318993909026
N            3.82971754054477       13.17572173125773       -5.40401253845577
C            3.15276840678413       12.15461796728190       -5.99457254237354
C            1.89329739719465       12.42138380121866       -6.56921979045580
C            1.12201086651023       11.42036195746632       -7.08246738774695
C            1.56535558253994       10.09760642842129       -7.03741773929091
C            2.77989214691441        9.80162349234058       -6.49234438820386
C            3.61019492844170       10.81684963208746       -5.97664188368748
C            5.64903580294545       13.88247006128329       -3.98933330447177
C            4.83957749461925       14.61475874658538       -3.11923365659755
C            5.35942725305738       15.20061379288930       -1.97978023141960
C            6.74340784698346       15.16300592668172       -1.74988186731283
C            7.56477133123325       14.51126806862472       -2.67331640164595
C            7.03129355792556       13.82666565276634       -3.75063251653109
C            7.82896075954995       12.80427262194515       -4.50661897797463
C            7.06660857374462       11.46138296587244       -4.52437166190847
C            7.26288389893641       15.46024331835477       -0.39708575410685
N            8.54096777784496       15.78306724245940       -0.26667130172869
C            9.07390954220675       15.72957518671130        0.98348343560250
C           10.41608758235651       16.12067612083085        1.16537593351145
C           11.03553051556522       15.98868345323179        2.37347016765998
C           10.34742432117579       15.44996891974942        3.46191886667725
C            9.04755362997797       15.06091395931407        3.32454862165297
C            8.37586820157599       15.19989171429055        2.09315267066294
C            7.00848941897733       14.81398306853175        1.92945822025625
C            6.40858203725798       13.77442754339422        2.81715030197361
C            5.13696454924260       13.87467584515176        3.38821115919855
C            4.51734377123230       12.76662495141522        3.92463231685657
C            5.14520239667863       11.51874159368263        3.92135032262603
C            4.42839278748572       10.27750006324090        4.29612446659268
C            3.55833355637263       10.21771452151800        5.38009531089073
C            2.88689752317279        9.05073188170028        5.67974477938773
C            3.05253576145137        7.90140919970185        4.91578134399282
C            2.27471322734870        6.62270212988137        5.26586995590696
C            0.76552229445392        6.89767033346722        5.13959969910357
C            2.63610635638240        5.45654084024167        4.32396329931393
C            2.60825314208189        6.19831328184273        6.70769225039870
C            3.92005082743442        7.96471611539896        3.83359076808775
C            4.59278972994297        9.12643016192355        3.52944222166841
C            6.44968875083316       11.44170054192159        3.43663863743633
C            7.06434627682853       12.54262222037468        2.89575736299627
C            6.42396166108231       15.11304065673420        0.70067764903296
C            4.94659233788207       14.92132801887785        0.45505217950932
C            4.47629408104863       15.61481302682419       -0.84153889754137
C            5.29108461424348        8.87556319249869       -3.63323511543587
C            5.56965894348099        7.61343225817167       -3.17636452768444
C            5.35256508932404        4.71993916266303       -2.47725961976679
C            5.62559363049054        3.48640822057550       -1.92957291285783
H            6.31855856876320       -0.00991230459368       -0.23089642750955
H            5.02690797638258        0.90028065305781       -1.00304276631184
H            6.10521601721677        1.69112528321179        0.15571926546812
H            8.72340794645576        0.45080830589490       -0.77214506134755
H            8.52852352363693        2.17924735010380       -0.48172758405179
H            9.17085185907287        1.61041331413012       -2.01997036759080
H            7.15122312331672       -0.73853574925141       -2.45888454394858
H            7.63137278464625        0.42529052944108       -3.68877364305303
H            5.92558957712828        0.20356893313065       -3.30765933787227
H            8.20404154561368        2.59685467782386       -3.88541582540081
H            7.72630513127796        4.79188765197430       -4.85643994800721
H            6.04286484384966        6.06782719044607       -6.13076272590599
H            5.55474453935045        8.33869673236983       -6.94958200081389
H            1.54742407790974       13.44026193145140       -6.58058846720433
H            0.16148393334586       11.64778704859574       -7.51527409641604
H            0.94455039494246        9.31098845145795       -7.43418324659110
H            3.11948807105604        8.78186078235744       -6.45417081604672
H            3.77404920074972       14.57823964533950       -3.25884562166186
H            8.61062429326165       14.40967112071679       -2.44537194869584
H            8.82236357723243       12.68989650859657       -4.05590345510702
H            7.99465147371505       13.15942302294704       -5.53016665382860
H            7.06493500019384       11.02617792284025       -3.51876640391156
H            7.57534106057138       10.73324968763333       -5.16812398183214
H           10.94747551782048       16.51672746165047        0.31767651079784
H           12.06298457544766       16.29325292415757        2.48858350365957
H           10.84614626669513       15.34359054870549        4.41141621815054
H            8.51194259142868       14.65308002175659        4.16428264597605
H            4.62871513882150       14.82307562249283        3.37559014411973
H            3.51273021715401       12.84299134717514        4.30318606950872
H            3.41864160093217       11.09457535464972        5.98845719890622
H            2.21606885704942        9.02972042752904        6.52098364464536
H            0.51571860307013        7.21217936049562        4.12658633623797
H            0.44875061859433        7.68509040512823        5.82209688567698
H            0.18552066811934        6.00373229675677        5.36772429219958
H            2.38823670675678        5.69440984278876        3.28983575515438
H            2.08456377536600        4.55616008115050        4.59388394755760
H            3.69858564974817        5.22111961133883        4.38066028782141
H            2.31457913856067        6.96332462148112        7.42491848934787
H            3.67841141063027        6.02630389337352        6.81985898573931
H            2.08929112429100        5.27729520141124        6.97242804682402
H            4.07068041675087        7.09904278316808        3.21337172144703
H            5.24324772556441        9.15889887540683        2.67214299394565
H            6.96025541154554       10.49402831213074        3.45151825469720
H            8.04313969873526       12.44978324268854        2.45617666960087
H            4.38167975259056       15.30795817645722        1.31035928685076
H            4.73103677828074       13.84790029941843        0.40511084973861
H            4.52045050158502       16.70406366073858       -0.72714335500858
H            3.43038546712266       15.37086060626111       -1.06471901044810
H            5.05822789774789        9.66305260593458       -2.93654128180491
H            5.58246252522985        7.41468863393191       -2.11840318864521
H            4.54774560541459        5.31622134688084       -2.08237778361254
H            5.02933467873681        3.14044480609068       -1.10401550771175
