72
 energy: -16.557554925845 gnorm: 0.000725176868 xtb: 6.6.1 (8d0f1dd)
C            0.85278733343197        0.29430400606181       -0.11053436628259
C           -0.34811009012222        0.07185707899705       -0.11268238887579
C           -1.75785423595223        0.02018318472082       -0.11468147493526
C           -2.43165564645416       -1.19159985628187       -0.10838734884943
C           -3.81682236290292       -1.25100042848135       -0.10852186786053
C           -4.49563527661092       -2.48808581945722       -0.10830851669950
C           -5.24060680612542       -3.45592856892990       -0.11492156916143
C           -6.23200548425368       -4.46046369010365       -0.13081533335497
C           -6.63458342876428       -5.08548352211474        1.04445891749128
C           -7.64482265793106       -6.02395270195403        1.03204344935990
C           -8.27134601978578       -6.34995003357158       -0.15342357280137
C           -7.88451605309267       -5.73781263860594       -1.32794706387582
C           -6.87307946152480       -4.80082022008425       -1.31744170635769
C           -4.55858826452818       -0.05742143359238       -0.11162931367173
C           -5.96617797198366       -0.12871857084968       -0.10602552116438
C           -7.17225107964584       -0.32176391984637       -0.09471570476820
C           -8.53702940708287       -0.67612108376079       -0.07764618864830
C           -8.90668952291759       -2.01674899297390       -0.07675309230501
C          -10.23494359865834       -2.38284248755498       -0.06111840019417
C          -11.21688414545360       -1.41352488416749       -0.04552505513803
C          -10.86687933650010       -0.07818471147674       -0.04564206402280
C           -9.53769271859751        0.28921634984671       -0.06159377892409
C           -3.89486893624415        1.17881350579689       -0.11898799745839
C           -4.63335702226131        2.37901204556204       -0.12064937806056
C           -5.25953250861021        3.42715305257718       -0.12294933938447
C           -5.96858776571001        4.64605223718851       -0.11566567392758
C           -7.35791533746957        4.66193449738772       -0.17548176912271
C           -8.04816093426171        5.85550218624145       -0.16368324614983
C           -7.36175567602341        7.05070456380528       -0.09247560018081
C           -5.98291487605650        7.05111178253527       -0.03320480524081
C           -5.29092269943779        5.85853457531422       -0.04491146440919
C           -2.49199746709782        1.21843200772710       -0.12270466895858
C           -1.80282565371009        2.44799794878655       -0.13366114571152
C           -1.11755218299261        3.45904281500266       -0.14411573109697
C           -0.24756537914179        4.56879748696427       -0.14882011186655
C           -0.07926307798010        5.34479791505410        0.99285954847120
C            0.79453872214579        6.41141206503666        0.99616636209439
C            1.51600582968345        6.71756911633921       -0.13964277529089
C            1.36006671766429        5.95723588587492       -1.28056640421829
C            0.48463375362767        4.89212152539217       -1.28640190141087
C            2.20075518634736        0.71216535595372       -0.11309495509179
C            2.50324000040075        2.06917108552565       -0.14953310046039
C            3.81201322753302        2.50062242770812       -0.15601835780201
C            4.84086368284891        1.58161201822047       -0.12492356515155
C            4.55763227690309        0.23114852566906       -0.08734619882784
C            3.24811121469423       -0.20173993421034       -0.08157873195378
H           -1.86679495839093       -2.10665002371278       -0.10340985994189
H           -6.15209266252077       -4.81752697812928        1.96898623846170
H           -7.94786316439097       -6.50028810612239        1.95011237419963
H           -9.06303903139414       -7.08128189020354       -0.16168295973935
H           -8.37686663424889       -5.98788437957722       -2.25349113839670
H           -6.57757336482817       -4.30952710994675       -2.22893257079400
H           -8.13680535264910       -2.76823626330114       -0.09161942902261
H          -10.50436048708966       -3.42641075837099       -0.06174328015098
H          -12.25610948609816       -1.69905616297476       -0.03332538789341
H          -11.63369136418156        0.67906613056816       -0.03290311593444
H           -9.25937072510189        1.32925323106934       -0.06242984498637
H           -7.88750050788270        3.72606019039486       -0.23009792743951
H           -9.12498835693318        5.85467816309614       -0.20945710510062
H           -7.90205747486705        7.98326585047355       -0.08262909883912
H           -5.44624019147169        7.98410964787422        0.02257005068651
H           -4.21505890872521        5.85149503068363        0.00165470948668
H           -0.63985785961323        5.09754736160755        1.87828084461292
H            0.91562228419212        7.00511280103774        1.88748075953623
H            2.20051945004599        7.55011878704674       -0.13572001830288
H            1.92337907082131        6.19562799226767       -2.16795195715990
H            0.36153639084177        4.29369817770699       -2.17314384621513
H            1.69626422119294        2.78077697730283       -0.17581068164428
H            4.02989145049808        3.55572748544323       -0.18638369447520
H            5.86481132902716        1.91802306775564       -0.13020698556685
H            5.36112265840661       -0.48678114925274       -0.06293083562334
H            3.02197881632791       -1.25399982054994       -0.05311226614673
