54
 energy: -9.537071005800 gnorm: 0.000684739854 xtb: 6.6.1 (8d0f1dd)
C            2.15322875684381        0.36088069281407        1.34845611400048
C            3.48104206302601       -0.24927603527580        0.89637034121268
C            3.97861197600097        0.42837175659303       -0.38105527364354
C            4.52723841475067       -0.17855629446052        2.02604328936449
C            5.80075395679196       -0.97474434706796        1.74397014392971
C            6.79716409398775       -0.92964266672134        2.90291476093663
C            8.06595987027474       -1.74973483804464        2.65806462762383
N            7.92518435985640       -3.18404728731537        2.97489205327364
C            6.79646546028536       -4.01704852378870        2.51169281447993
C            7.19673923984729       -5.44881795268242        2.91627739555479
C            8.57104007045492       -5.31195855736174        3.51396591832295
C            8.94874155999643       -3.97423826388145        3.52160248303813
C           10.21016054474075       -3.59408983641117        4.01989547279959
C           11.06093454232275       -4.54600334238349        4.48666464595479
C           10.72013488448479       -5.93037806476309        4.48330083272778
C           11.61362812532155       -6.93251634624852        4.95326234640660
C           11.20083022358685       -8.25911740644071        4.96740304107043
C            9.92764433319151       -8.61174779536220        4.48464178379101
C            9.06991453765441       -7.67640457646321        4.00654170795048
C            9.43820323909389       -6.31343613152476        3.99547583604927
C           12.05873122825257       -9.34085722684402        5.47699943837904
O           11.72204143152484      -10.50129570551198        5.39509414010810
C           13.37186095035863       -8.97943821037333        6.10971091154694
C           13.99036234718655       -7.73223799989908        5.46557979651287
C           12.99680254987240       -6.55630325614995        5.42364577627760
H            1.39376853319186        0.29045875722521        0.56827146048536
H            2.27853938182261        1.41655956335013        1.58952077900401
H            1.76597183244590       -0.13617213800247        2.23905827582407
H            3.30914111038029       -1.31746943967608        0.67452925454193
H            4.20376026799377        1.47892608192970       -0.19663872002042
H            3.22646070003373        0.38973457299070       -1.17043263188989
H            4.88444526381061       -0.04047612777715       -0.76588123039043
H            4.07788249965716       -0.53929256136723        2.95892863025646
H            4.77859626795548        0.87068074742590        2.21578494720976
H            6.28561957720223       -0.59841605525739        0.83570329576255
H            5.53400555676589       -2.01077716275538        1.51269521457977
H            6.31618996576097       -1.28076888518889        3.82334571681295
H            7.05727970616290        0.11916796092799        3.09809047433772
H            8.88708439947066       -1.35965537791636        3.26666562700240
H            8.38958085918143       -1.65704861299945        1.61748931455950
H            6.68617292675148       -3.90925799064142        1.42834746906088
H            5.86980509544988       -3.69033466222893        2.99353323095559
H            7.21816895152572       -6.12860101388400        2.05673491078396
H            6.50533341605519       -5.87330834124158        3.65330511078264
H           10.48930497711332       -2.55594113798977        4.03009784057385
H           12.01289939686631       -4.24283015299914        4.88415194484870
H            9.65284123654187       -9.65287081720462        4.50266740230542
H            8.10010302013949       -7.96258089689191        3.63850184092471
H           14.04486483899756       -9.84131575464414        6.02983769129002
H           13.21139174295364       -8.81466499762987        7.18041159519880
H           14.30862431661355       -7.97543434695984        4.44402544353922
H           14.90774414503501       -7.44232799130180        5.99698065587915
H           13.39548372842086       -5.77224451441889        4.76861870239843
H           12.91646752602440       -6.10397048932008        6.41900535571621
