118
 energy: -24.488381002664 gnorm: 0.000169774431 xtb: 6.6.1 (8d0f1dd)
C           -0.78127427185751       -0.84554891722503       -2.22092620616294
C            0.22841736646127       -1.15686739988857       -1.11558093396770
C            0.83697352953103       -2.55074960573281       -1.26431566012589
C            1.31192549961267       -0.10590633483699       -1.01958066114938
C            2.03836849839486        0.27685958217503       -2.12933396719053
C            3.03549134395632        1.22132328739203       -2.02377632761783
C            3.32313807024288        1.78553725842413       -0.79994370706317
C            2.63535377950924        1.41280941124351        0.34078669647431
C            2.98435307136082        2.08792068040845        1.65392413494071
C            2.01949194604158        3.23495420382932        1.95488823455394
C            3.08302421500714        1.10895514520689        2.82572303004836
C            1.61299133645619        0.45622763106114        0.22927375531132
N            0.87567551581929        0.00838236514335        1.37472066370414
C           -0.24045943712435        0.76479280362423        1.79995388808634
O           -0.59318509227719        1.76195987978594        1.19850686268200
C           -0.95133902838840        0.32953487800780        3.00365183175170
C           -1.99029382329832        1.07302114258646        3.51070457185609
C           -2.66716954917860        0.71188968322980        4.69132431308196
N           -3.68225120190572        1.49007483939542        5.17018805279837
C           -4.26578739752302        1.14974205084456        6.30988615837443
C           -5.33412335625286        2.04457482524672        6.80146184570917
C           -5.35985976073449        2.50984191974852        8.11625256009548
C           -6.36225447765430        3.35086882201492        8.54358842945498
C           -7.34869519492944        3.75525424197019        7.66669464890786
C           -7.32530343003789        3.32325365326930        6.35590406319995
C           -6.32538541428220        2.48086676344346        5.92529785975704
C           -3.91514821364140       -0.02871277551470        7.05175881242761
C           -4.54827105619730       -0.44199117455975        8.24426002285685
C           -4.15790143684259       -1.57029315761130        8.92498712876643
C           -4.80018435052644       -1.93903846536829       10.18817581510304
O           -5.70908459925936       -1.26650474186154       10.63854394132484
N           -4.32190295028021       -3.07893241359646       10.87507434832843
C           -4.84415177424790       -3.37648754434798       12.17843088973669
C           -5.92925599407403       -4.26094826138809       12.32228776237982
C           -6.71507443408637       -4.79814159335249       11.13942174577106
C           -7.64672445626930       -3.72577857769062       10.57442036331515
C           -5.83576647543072       -5.41274833298220       10.04956943762742
C           -6.36348684108275       -4.59002859957609       13.59354983325113
C           -5.75698631192186       -4.06568856772141       14.71178618733152
C           -4.71290861891418       -3.18062077405092       14.57194998552574
C           -4.24084062209059       -2.82026523528272       13.32290688028113
C           -3.15176103382085       -1.76260163748054       13.25648513423645
C           -2.00273361211197       -2.11811886143507       12.31182903793365
C           -3.74293848949957       -0.38975037030333       12.93382671007685
C           -3.30047731396873       -3.91758337822176       10.36395205103467
O           -2.93520228009543       -4.90768042265867       10.97011178712999
C           -2.67672074431659       -3.55345169091039        9.08998237185220
C           -1.66502784649638       -4.31869890934445        8.56123965330994
C           -0.99935805509365       -3.96123826975763        7.36843981038663
C            0.07231276889617       -4.71243706804676        6.77738118345278
C            0.56155542781536       -5.94468843638379        7.43048709469554
C            0.90689642746235       -5.97691558663181        8.78155788796451
C            1.36538951394294       -7.13827303659804        9.36104564588583
C            1.50199904640013       -8.28412212603841        8.60345306391704
C            1.18732669609083       -8.26369258774850        7.25963105781261
C            0.72690346200800       -7.10468621130414        6.67695427950949
N            0.65627279165731       -4.37048842953477        5.63837987501426
C            0.25369813795259       -3.22751891415774        5.00842319863503
C            0.89006137285532       -2.80529068254345        3.82547670566888
C            0.52507947635231       -1.65601569148928        3.16577002090796
C            1.24549934532343       -1.22284110341728        1.96690140802268
O            2.14788859040463       -1.89820882903617        1.50832222263719
C           -0.53761751195275       -0.85758812654714        3.65941855665617
C           -1.19103646469832       -1.24732593520228        4.83588979795403
C           -2.24713691500857       -0.45424178349276        5.35380920049297
C           -2.88353945896831       -0.83202749693676        6.54934209411909
C           -2.47541848726079       -2.00689111041350        7.22849199678199
C           -3.10702304278606       -2.37888386306628        8.42236429859746
C           -1.42349439769381       -2.80111447074669        6.70797126208428
C           -0.78525561904917       -2.42639086946296        5.51241320174698
H           -1.60653424658239       -1.55851131818725       -2.22055546085546
H           -0.31234808020139       -0.89040488760822       -3.20311811902595
H           -1.19917140700645        0.15456395744630       -2.09920948669092
H           -0.31699491794932       -1.12867693483439       -0.15581430821119
H            1.39386558446339       -2.63049465478168       -2.19743813310713
H            0.07091266565091       -3.32669226058823       -1.26553643853653
H            1.53087704900003       -2.75884030655381       -0.44801575778918
H            1.82442129568088       -0.17238286800375       -3.08343690381294
H            3.59096806677371        1.51854780486790       -2.89795827433082
H            4.09791209805037        2.52943901723247       -0.72540965169425
H            3.98979364018251        2.52449129462464        1.51662395931779
H            1.00205639686187        2.86187228457583        2.05919678708310
H            2.01043062392393        3.96786708635066        1.14758204883153
H            2.28128888457612        3.74973475479609        2.87983504367411
H            2.09514611469192        0.75600016456610        3.11537889920154
H            3.52756170914301        1.57464671199758        3.70612933031694
H            3.67924677860248        0.23456446733189        2.56165403513940
H           -2.28634982618793        1.96740334096747        2.99451408409393
H           -4.57209171795131        2.22103180242382        8.79053487504999
H           -6.37461134632988        3.69722925869388        9.56395997762648
H           -8.13269674117265        4.41340308366701        8.00344348997090
H           -8.08958603772301        3.64661708894186        5.66848023131513
H           -6.29464789811551        2.14529683185490        4.90302382691305
H           -5.36563364775755        0.12854269594562        8.64357315176581
H           -7.34624404025631       -5.61318085920080       11.53642766447394
H           -7.07263506782262       -2.87723383613674       10.20535589988379
H           -8.32382089968513       -3.34556016113200       11.33998908091707
H           -8.24650253229572       -4.10756051233630        9.74766444333051
H           -5.33444746797098       -4.63342753730020        9.47867015595914
H           -6.41893458128100       -6.00273393238758        9.34131748219968
H           -5.06421327599093       -6.05323827082247       10.47938576352873
H           -7.19915475618113       -5.25928422707944       13.70715129462773
H           -6.11022561873662       -4.33337640259106       15.69405610080138
H           -4.26064652083696       -2.74995565892368       15.44903104576482
H           -2.71975923977096       -1.70742412302091       14.27177844987064
H           -2.30764407486504       -1.99302264644847       11.27482808227268
H           -1.68960565077305       -3.15487507836815       12.44252772473807
H           -1.13562933519172       -1.47480379157525       12.46738391653259
H           -4.22404939981484       -0.39957404413913       11.95725670205007
H           -2.97640027822882        0.38571630803940       12.91888003859104
H           -4.50271941323486       -0.10393119538111       13.66191112472166
H           -1.38685547322892       -5.21433684684910        9.08415344339836
H            0.83097700490846       -5.07503770760464        9.36423227367712
H            1.62106722176039       -7.15189547417125       10.40780754444073
H            1.86029537020476       -9.19239344809301        9.05939738447034
H            1.30279954107849       -9.15542847532060        6.66571923235317
H            0.48561551000940       -7.07760289122267        5.62831633793891
H            1.69964155112179       -3.39204430019816        3.43267370718795
