36
 energy: -8.020012781725 gnorm: 0.000448481504 xtb: 6.6.1 (8d0f1dd)
C            1.04088572875386        0.13133806533180        0.19194715163834
C           -0.17763232560974        0.14809034557250        0.09186162412959
C           -1.57620935684296        0.11753430081356       -0.02787198416983
C           -2.29092650694632        1.29021490623512       -0.06330863705235
C           -3.68207314212982        1.29010978936817       -0.18508948410398
C           -4.36873355502478        0.11691754655687       -0.27207741305875
C           -3.68684390271830       -1.11860569547272       -0.24099124013170
C           -4.37215539996188       -2.35134588456947       -0.32693355414890
C           -3.69044553341250       -3.52980312297264       -0.29287252988389
C           -2.29658673333929       -3.53760181199770       -0.17278461270957
C           -1.60540211245836       -2.36698502270156       -0.08839650366889
C           -2.27655284459736       -1.12486858903482       -0.11911607435017
C            2.43997640722275        0.07217363937558        0.30095572552316
N            3.18662324198347        1.08536885271111        0.73403655716740
C            4.44189335048308        0.65628951671714        0.69938971810915
C            4.48024790226775       -0.65893547985173        0.23048778294369
C            5.65569298511183       -1.50505062688521        0.02699200678110
C            6.94277303614129       -1.07622617223571        0.33862093874368
C            8.02417426751806       -1.90368473745159        0.13055512764016
C            7.83957110599863       -3.16858231401324       -0.39047012032531
C            6.56863873168949       -3.60640025120614       -0.70355868110751
C            5.48594615585172       -2.78104512875758       -0.49578324032369
O            3.19271400781311       -1.02752031226098       -0.01973451968620
H           -1.75880014566951        2.22380167607878        0.00412544842079
H           -4.21327894804674        2.22735538607961       -0.21040579086721
H           -5.44090835074720        0.11904207640778       -0.36563974175478
H           -5.44446456076921       -2.34565447311761       -0.41938104511040
H           -4.22455228965505       -4.46349817777328       -0.35829586743229
H           -1.76930280673079       -4.47708539964932       -0.14691971010179
H           -0.53324052473831       -2.37546079395513        0.00345302778990
H            5.28921219244160        1.26086907706256        0.98260695676430
H            7.08853780652985       -0.09132992532529        0.74587990274360
H            9.01682580129689       -1.56282428018162        0.37525419330253
H            8.68721356539693       -3.81394816083556       -0.55278645865759
H            6.42295078779691       -4.59344302129486       -1.11066307836586
H            4.48927196515095       -3.11000579680227       -0.73559587470176
