34
 energy: -6.810809636138 gnorm: 0.000804759178 xtb: 6.6.1 (8d0f1dd)
C            1.30176198429758       -0.25560407638357       -1.54433695999474
C            2.49184350139339        0.19116856427862       -0.68715297948451
C            2.22504214811917       -0.03350533966090        0.80611031669009
C            3.78175249860299       -0.51876806603024       -1.12675461725421
C            4.67505166525631        0.38212406305008       -1.56249481153913
C            4.13493977736476        1.72676998212731       -1.47692044743436
C            4.69917991461921        2.94717579572944       -1.82030276248249
C            3.95409909351584        4.09338617401415       -1.64187303696414
C            2.66735302330318        4.02841829535851       -1.13093080888231
C            2.10007478515454        2.81403033183081       -0.78849683076497
C            2.83709095827097        1.66116028630798       -0.96201401644250
S            6.20405278412466       -0.41527227243152       -2.08938076473839
O            7.29825618100195       -0.05537918616114       -1.11773776293830
O            6.32289546154092       -0.30125980392525       -3.58731103997722
C            5.52240903075044       -2.03598313444373       -1.66590602885351
C            6.12517568053377       -3.26256757613495       -1.78465551661848
C            5.42456084515422       -4.39160841324043       -1.40340015813907
C            4.13577756688575       -4.28210601891011       -0.90975187666398
C            3.53090897979007       -3.04821874914207       -0.78998153074090
C            4.23180193422386       -1.90768746124302       -1.17219803629750
H            1.09199755417901       -1.31428851132461       -1.40184380671265
H            1.51096017057214       -0.09279931314910       -2.60082097089549
H            0.40494561866913        0.30597239940751       -1.28672579456641
H            2.04444068006189       -1.08596614429358        1.01798185329095
H            1.35472632643698        0.53269803863197        1.13465497275330
H            3.08098235793098        0.28715696231867        1.39848498047124
H            5.69869816051601        2.97946399431223       -2.21742521376162
H            4.37746412697539        5.04933698655053       -1.90242935192964
H            2.10058448727496        4.93521068985073       -0.99915434727908
H            1.10112446150269        2.75829374911343       -0.39334327864315
H            7.12780404198225       -3.32951488545363       -2.17150705331553
H            5.88501782098691       -5.36166584279653       -1.49266716993694
H            3.59965944544055       -5.16935816634979       -0.61612128883921
H            2.53027693356377       -2.96008335180744       -0.40666386111468
