56
 energy: -11.600109772418 gnorm: 0.000968312996 xtb: 6.6.1 (8d0f1dd)
C           -3.00806945043814        1.50744817254343       -0.90188692626829
C           -1.95234848808312        0.41894579438548       -0.64940336517119
C           -1.06785622864078        0.26386897465032       -1.89685738490865
C           -2.66365351820895       -0.93876958074234       -0.34051105862139
C           -1.72493535759552       -2.00168411946161        0.15352551079720
C           -2.02942885411267       -3.38805426324541       -0.06124230139530
C           -1.12218579343868       -4.37121140557739        0.12529854369531
C           -1.37163015146604       -5.78655219550919        0.08571923795439
C           -2.48493256294783       -6.44320431953679       -0.36753912646716
N           -2.19580089451850       -7.78605935439172       -0.24409985450166
C           -3.06088999495201       -8.87873556241517       -0.61510117553383
C           -2.81550004079753      -10.14078290536779       -0.09915051577256
C           -3.61936216816018      -11.20623773089925       -0.44003970322104
C           -4.67856905255797      -11.02049985118569       -1.30536646754513
C           -4.92915358116817       -9.76807368451006       -1.82910760529287
C           -4.12513476091556       -8.70245913394993       -1.48761229589987
N           -0.98039418988323       -8.00763073706637        0.27300942959905
C           -0.45754908228213       -6.81756518605895        0.50382143488212
C            0.87458519472543       -6.61215392570447        1.09072742439195
C            1.87282509958303       -7.56240889852583        0.89144589339921
C            3.14392712729636       -7.36418329664677        1.38384367505424
C            3.44721432132124       -6.21045318160182        2.07952582904411
C            2.46713279902611       -5.26646607554238        2.30296787318418
C            1.18958106983775       -5.47582046031702        1.83678532205268
C           -0.61127751690255       -1.64047039824454        0.84211286666066
C           -0.22377473939704       -0.29636213795918        1.10731846729435
C            0.89722405566127       -0.05591928055110        1.85345515530162
C            1.30950467634006        1.24539203241809        2.12361472805918
N            1.61139933794101        2.35126476363726        2.32673835852733
C            1.62812876243189       -1.13258276983267        2.35450459644501
N            2.16941240570261       -2.09224654366869        2.73133939685307
C           -1.06390306795412        0.82701090632925        0.57017330611132
H           -3.63973301036691        1.24721753351923       -1.75049398354606
H           -2.53474606316778        2.46518119603605       -1.11524234872507
H           -3.65104728961207        1.63779003718931       -0.03220045681251
H           -1.66134094099378       -0.02777297324800       -2.76244692347569
H           -0.30645716060600       -0.49887092245502       -1.73882819971209
H           -0.56152566577951        1.19848765955456       -2.13484934735484
H           -3.17796530276718       -1.29086748500361       -1.24018062647160
H           -3.44335382987939       -0.77568738588763        0.41005222258476
H           -3.03294373035937       -3.64883966513486       -0.34696168073818
H           -0.10267251997663       -4.08391860609228        0.29761773881456
H           -3.38797204989436       -6.01006093915256       -0.75784068771219
H           -1.98296470691859      -10.26965375055136        0.56998280875476
H           -3.42023120437819      -12.18371001466110       -0.03248034097970
H           -5.30795019458387      -11.85302124244797       -1.57375342764177
H           -5.75355158268206       -9.62386261446091       -2.50808922446341
H           -4.31075968751272       -7.72843639621878       -1.90417330868194
H            1.63461106039347       -8.45138382819631        0.33399535450086
H            3.90724363256856       -8.10571437123979        1.21523404798613
H            4.44729120015291       -6.04622556698301        2.44573228616439
H            2.70373954047558       -4.34581688139741        2.81122257501036
H            0.41733464893603       -4.76908451984775        2.08119626550295
H            0.01798303735098       -2.40626142107527        1.25386235281678
H           -0.41676944562716        1.66154506842749        0.28255655644174
H           -1.70189409030638        1.20645344388380        1.37421907900914
