26
 energy: -4.608227534369 gnorm: 0.000576143959 xtb: 6.6.1 (8d0f1dd)
C            1.04410381249207        0.20462220799229        0.17042614224210
C            2.54681622302765        0.06376736219129       -0.09066147462445
C            2.81964864841318       -0.10788156327574       -1.58813915316629
C            3.11843497124072       -1.15011927608513        0.69361259892385
C            4.62115251054608       -1.15894145295515        0.73387388431502
O            5.20256631059430       -2.21308644609821        0.63621794205266
C            5.30906213379446        0.12016116537867        0.88566291014551
C            6.67055971915711        0.18836892485118        1.18945402930398
F            7.40554091072466       -0.92223715632436        1.36552019187786
C            7.28710663053251        1.41891267179045        1.33773338050766
F            8.59845222314282        1.47664898105520        1.62843051951575
C            6.56232051937751        2.59788360117543        1.18707137920654
F            7.17391888235610        3.78357791242876        1.33032786674848
C            5.21856127460678        2.54682442869316        0.88138617608281
F            4.51736091892122        3.68119959970143        0.70330948340811
C            4.58089165316124        1.31262236250288        0.72644837127673
N            3.24630885861228        1.28957038643641        0.38031858174883
H            0.50801423830562       -0.69324346716298       -0.13304899976052
H            0.63265181638221        1.04805684851269       -0.38127251002137
H            0.85453940136202        0.37381317881460        1.22917941744543
H            2.32465883866711       -0.99487293585554       -1.98010439527124
H            3.88869923130413       -0.20811877755895       -1.77038150377762
H            2.46627933383854        0.75743480341801       -2.14611580721920
H            2.77561835739709       -2.08347235614951        0.23907047347993
H            2.74084610879927       -1.14330712202400        1.71900747270366
H            2.77136647324304        2.16386611854711        0.16945302285583
