39
 energy: -8.032324368726 gnorm: 0.000210950377 xtb: 6.6.1 (8d0f1dd)
C            1.70800108066374       -0.85416283710561       -1.15642566676209
C            2.76978744809532        0.00989773299603       -0.47315775002853
C            2.34300121725202        1.47906563457670       -0.43531597015928
C            3.08225579470424       -0.51448509628517        0.96131677471979
C            4.53194946999401       -0.83111231225730        0.92255636265115
C            5.00013808759293       -0.57345205122689       -0.34759056946761
C            6.38448871981099       -0.79612887094671       -0.66116208599819
C            6.88619422752037       -0.55604026606534       -1.94037370650521
C            8.21071647604361       -0.77165900349350       -2.21860496674329
C            9.06591581745608       -1.23173327779597       -1.22425543534134
C            8.59065670133637       -1.47315080882126        0.03842990463944
C            7.24442965656505       -1.26373220259401        0.35171051530784
C            6.74586881684903       -1.52201993231967        1.69308979704406
N            7.59708971471106       -1.94845028365478        2.60938781374523
C            7.06415459742760       -2.16249138014923        3.82415905252080
C            7.89924392987197       -2.61284231564723        4.86912480244959
C            7.40770271953948       -2.84737423642907        6.11784413313982
C            6.05191211803077       -2.64469307324767        6.38939980976166
C            5.21431309263720       -2.20955452626583        5.40812062739562
C            5.68583593242459       -1.95260828580364        4.10087602029898
N            4.82480860194193       -1.51861279000730        3.17123791288717
C            5.36280044033160       -1.30466984912652        1.97629963992139
O            4.02599705801850       -0.10013931737048       -1.21324243145589
H            0.76370816561105       -0.81866134788981       -0.61477036032340
H            2.03997477955940       -1.88964687719686       -1.20796832102934
H            1.53607750695868       -0.50799514630165       -2.17403815789572
H            1.42101225049874        1.60693958865752        0.13025489507427
H            2.18473154021299        1.85361333310930       -1.44500157275622
H            3.12038796183361        2.08494503642469        0.02710388620097
H            2.49634051620133       -1.40717735979109        1.20012154197249
H            2.86891966672914        0.24124015717341        1.72327609676247
H            6.21249778626290       -0.19950422316798       -2.70034767490598
H            8.59075628364592       -0.58430523627079       -3.20937363933937
H           10.10665580042710       -1.39873622018391       -1.44811903199589
H            9.24748206434433       -1.82923862565495        0.81267095376167
H            8.94191599056395       -2.76654267821684        4.65277829661827
H            8.06417268444240       -3.19006173769967        6.90062027758593
H            5.67097648884369       -2.83385717605522        7.37953597144812
H            4.16951879504662       -2.05043213789455        5.60941225480013
