51
 energy: -9.873330445382 gnorm: 0.000845992766 xtb: 6.6.1 (8d0f1dd)
C           -3.36093829808352       -2.65948777841718       -0.12017725231646
C           -2.70289369335765       -1.33107815171882       -0.14584028940672
C           -3.37116019629174       -0.11443343271723       -0.20006882393498
C           -2.43040822690745        0.92759531468992       -0.16081971389249
C           -2.67030063863008        2.38057486353218       -0.12477362915502
N           -1.22983167468371        0.33893721473572       -0.08178325532930
C           -1.30843018500883       -1.04833975492481       -0.09309474195248
C           -0.17250184223099       -1.89657072689249       -0.00236311578180
C           -0.29283141903741       -3.35025917178516       -0.06154734689079
C           -0.80493218555726       -4.08243958340303       -1.12427364530090
C           -0.81988929049761       -5.45981483957025       -0.91937116645153
C           -0.32298855235364       -5.85660881134665        0.31356294926941
C           -0.20825074318100       -7.19664956661435        0.80913030743335
C           -0.59886670576406       -8.31229990758972        0.04204451693128
C           -0.48110992580905       -9.58029614411383        0.52931331381762
C            0.03725146681006       -9.81492613542600        1.82282878709337
O            0.16517472804985      -11.06374424882904        2.33240817715631
C            0.42824856373065       -8.69707381515036        2.59166022663232
C            0.30822396083485       -7.43325431786456        2.09714745773084
S            0.16429834743154       -4.45378294831493        1.21329524658102
C            1.08051355377375       -1.24285798335111        0.14114809833282
C            2.41373912630649       -1.73863378009860        0.19884434740010
C            2.85784656948908       -3.15096523783385        0.13543534159106
C            3.25910957339139       -0.64321580008647        0.32228233698453
C            2.49062774757666        0.53188251408608        0.31691278640417
C            2.95169909604199        1.92914432840914        0.38950966539779
N            1.21542659114748        0.13918288721426        0.19832495447459
B            0.06389014257888        1.13217888109846        0.07339534515958
F            0.25746046849618        1.92193470554831       -1.05582747711549
F           -0.00477036186478        1.90564980358487        1.22808246011786
H           -4.39103127275720       -2.57694176134681        0.22763091234337
H           -2.83977296742526       -3.34144690794049        0.55202911058019
H           -3.37943764221577       -3.10507633959438       -1.11478395883323
H           -4.43964657477519        0.01133480588820       -0.23696490826732
H           -3.44858918058212        2.66981807780636       -0.83089657471699
H           -1.75536131884729        2.91492856862422       -0.38321965933849
H           -2.97234675176676        2.69669858472158        0.87357948973849
H           -1.14399272480968       -3.61295016051409       -2.03448991969494
H           -1.18603755654965       -6.15386300576897       -1.65872368388953
H           -0.99490643199168       -8.15744412653958       -0.94557941456991
H           -0.78268178735478      -10.42167687446188       -0.06838254996527
H           -0.14910074640472      -11.72782119824408        1.67982346943023
H            0.82236920165990       -8.87167326590788        3.57657277585320
H            0.60922595327757       -6.58977902608911        2.69302539877203
H            2.72488864802364       -3.64220791769354        1.09946999903309
H            3.91280069633263       -3.21789890430432       -0.13145161418017
H            2.28999608808773       -3.70586246795359       -0.61158797174536
H            4.33246498091103       -0.68455958366745        0.39325507203493
H            3.55744047670990        2.09487329538491        1.28077792520733
H            2.09447857359411        2.60334338128890        0.43021857604933
H            3.54508434048467        2.18948644946026       -0.48738833481803
