26
 energy: -3.863185100521 gnorm: 0.000833704287 xtb: 6.6.1 (8d0f1dd)
C           -2.55339299059553       -0.89320069983894       -0.71995330439558
C           -1.17189407670850       -0.58374399852334       -0.29641130773205
N           -0.20314351629056       -1.50178608099567       -0.21217570544213
C            0.92925872593768       -0.87726161870112        0.19569485990610
C            2.16826098318608       -1.41877581112612        0.41690755597770
C            2.50596882709468       -2.79370529838364        0.25259301012984
C            1.58194886618457       -3.74845424323830       -0.17108001281823
C            1.96346312872939       -5.05185770920439       -0.31452446367555
N            3.18787134788375       -5.50003935045814       -0.07259772727291
C            4.07111813829503       -4.59669954997640        0.33321008885229
C            3.79471323462102       -3.26890351468231        0.50754665171886
C            0.62268810370024        0.54077403241618        0.36959111857031
O            1.37134009889131        1.42321917960735        0.71877316637966
N           -0.73169313462098        0.65317849517537        0.03716922097679
C           -1.39646451214177        1.94465179118246        0.10871900902224
H           -2.67975758547864       -1.96909283281225       -0.84358410397906
H           -2.78345220283896       -0.41479022613663       -1.67215824322573
H           -3.27454360949623       -0.55214823953066        0.02314827219828
H            2.94166632017410       -0.74199102475903        0.74026331008197
H            0.57266518892441       -3.44342041427817       -0.38056479932426
H            1.24711518832915       -5.79211290371679       -0.64467565771145
H            5.06713452703141       -4.96978441431509        0.53258896738733
H            4.56177577667558       -2.58791027905089        0.83969783732954
H           -0.64463324149584        2.71371849122815        0.29355642214703
H           -2.11389662128424        1.94975818380511        0.92744474716966
H           -1.90358696470692        2.16134803630407       -0.82958891227056
