80
 energy: -15.755921390950 gnorm: 0.000733823142 xtb: 6.6.1 (8d0f1dd)
C            0.48867408087943       -1.25768109482488        0.22697393604372
C            1.86386450986783       -0.80747967778257       -0.04515579915541
N            2.66990538911096       -1.36044189886607       -0.94318680470205
C            3.93541252237274       -0.73692606749850       -1.01318306302932
C            4.97354969606600       -1.18399894226509       -1.90509920170046
N            6.22477341606665       -0.71609857002258       -1.88990806468980
C            6.85674574772081        0.23205251357718       -0.97879029675062
C            8.34892801115137        0.19709024357442       -1.06454091163600
C            9.05189159974097       -0.84751891675326       -0.48762397329919
C           10.42599540402406       -0.91072831568167       -0.58834866725618
C           11.11230622993666        0.06904519868090       -1.27405180635311
C           10.42237163716359        1.10858382623850       -1.86144441395672
C            9.04796169112746        1.17022432315026       -1.76063570212292
C            4.60398730860838       -2.22792022048087       -2.80795607568054
C            5.33279398738528       -2.85643148603810       -3.82642079308503
C            4.51454464683264       -3.82316009325656       -4.40349416900443
C            3.27720886758836       -3.80768501771233       -3.74986350015599
C            2.09405959797910       -4.64949487804403       -3.99862869490483
N            3.36717183304097       -2.84906213250134       -2.80680637829682
B            2.23046747793889       -2.51817811839373       -1.83968943339237
F            1.96026856338320       -3.63229701100830       -1.05099587656958
F            1.10995030907784       -2.13120240016397       -2.56895825995564
C            3.88604922713561        0.29163271652315       -0.10700617939989
C            2.60534529059705        0.27369242388818        0.53140827822329
C            2.19238745187042        1.17927889367168        1.54000989762026
C            0.98161573202448        1.15860524409223        2.28563768682312
C            1.00851245645992        2.21961718330841        3.17203453674233
N            2.23546441737726        2.88099697706878        2.94298048543697
C            2.95321903907735        2.29979216963531        2.00468810059797
B            2.66008437864117        4.14408121472608        3.69415338532536
F            2.81525225931726        5.18274741842830        2.78098487505252
F            3.83582212397389        3.88011008801307        4.39057671170890
N            1.56134295632903        4.51643661972686        4.69327498586290
C            1.62101434932622        5.55704260671265        5.51466609629560
C            0.44133822200529        5.52923849649356        6.29139217360751
C           -0.31422521087170        4.44712554511381        5.90820204332419
C            0.38586618545333        3.77576923984803        4.86917573741936
C            0.06462291930300        2.62829884180806        4.14675474279741
C           -1.17338897111097        1.85387714728316        4.40169524122444
C           -1.10780566032808        0.61513953134280        5.06731987825181
C            0.19957392159584        0.05677661074582        5.51116453887114
C           -2.27085957910707       -0.09731934008677        5.28926223355996
C           -3.50758542865770        0.38780880249965        4.89565178252144
C           -4.74599087438565       -0.40258506389418        5.13507474661680
C           -3.56259702229510        1.60603432497291        4.23773389739772
C           -2.42267021917730        2.34253199328875        3.97612744276177
C           -2.52851880161780        3.64600035510286        3.26432522153951
H            0.22413101271109       -2.07005589517567       -0.45143415934190
H           -0.22592356400753       -0.44868068918135        0.07488295484832
H            0.39293068209863       -1.63051466151137        1.24674762405450
H            6.91377534668034       -1.09391688570496       -2.53733753597304
H            6.54992849698902       -0.00837710304153        0.04334879393706
H            6.48620065637219        1.23711791843406       -1.20120854128378
H            8.51028736451766       -1.61479879819100        0.03872299959727
H           10.96241524564029       -1.72654590249164       -0.13250651851944
H           12.18604391817397        0.02103922257045       -1.35265225920816
H           10.95691537612289        1.87345056545969       -2.40020413043574
H            8.50641864157352        1.97648797275296       -2.22483101686924
H            6.34525774868297       -2.62731666973224       -4.11246027370980
H            4.78037025809958       -4.47941314258483       -5.21564936467398
H            2.32121214493203       -5.70138680321530       -3.82562052519140
H            1.74047849525757       -4.53378737816835       -5.02323361091856
H            1.28470482389286       -4.36151375762450       -3.32619343814930
H            4.66013452649443        1.00889795732932        0.09044268144323
H            0.18215128756958        0.44628129628689        2.20125146909867
H            3.91469099460641        2.64271291744624        1.66557900299972
H            2.43551357774025        6.26114507080079        5.55730104472598
H            0.18171092740022        6.23901843419941        7.06037621326645
H           -1.26471854946365        4.14911592047832        6.31697687805377
H            0.90574702259724        0.85162733124379        5.75329445298227
H            0.64335340394688       -0.56002487302119        4.72922852013005
H            0.08208560973898       -0.56123558070081        6.40175149792039
H           -2.21558077914182       -1.05055867008087        5.78413841951735
H           -4.64048683289348       -1.04489806703994        6.01001605106419
H           -4.97225811350305       -1.03692705886111        4.27749911191916
H           -5.60202998721953        0.25091934629959        5.30619984624215
H           -4.51685781751571        1.98437577959872        3.91702748323586
H           -3.36901048791159        3.64799602732431        2.56970585850565
H           -1.62606342540846        3.85520898400557        2.68909716793199
H           -2.67303969476626        4.46326588783961        3.97127271229850
