      -----------------------------------------------------------      
     |                   =====================                   |     
     |                           x T B                           |     
     |                   =====================                   |     
     |                         S. Grimme                         |     
     |          Mulliken Center for Theoretical Chemistry        |     
     |                    University of Bonn                     |     
      -----------------------------------------------------------      

   * xtb version 6.6.1 (8d0f1dd) compiled by 'conda@1efc2f54142f' on 2023-08-01

   xtb is free software: you can redistribute it and/or modify it under
   the terms of the GNU Lesser General Public License as published by
   the Free Software Foundation, either version 3 of the License, or
   (at your option) any later version.
   
   xtb is distributed in the hope that it will be useful,
   but WITHOUT ANY WARRANTY; without even the implied warranty of
   MERCHANTABILITY or FITNESS FOR A PARTICULAR PURPOSE.  See the
   GNU Lesser General Public License for more details.
   
   Cite this work as:
   * C. Bannwarth, E. Caldeweyher, S. Ehlert, A. Hansen, P. Pracht,
     J. Seibert, S. Spicher, S. Grimme, WIREs Comput. Mol. Sci., 2020, 11,
     e01493. DOI: 10.1002/wcms.1493
   
   for GFN2-xTB:
   * C. Bannwarth, S. Ehlert and S. Grimme., J. Chem. Theory Comput., 2019,
     15, 1652-1671. DOI: 10.1021/acs.jctc.8b01176
   for GFN1-xTB:
   * S. Grimme, C. Bannwarth, P. Shushkov, J. Chem. Theory Comput., 2017,
     13, 1989-2009. DOI: 10.1021/acs.jctc.7b00118
   for GFN0-xTB:
   * P. Pracht, E. Caldeweyher, S. Ehlert, S. Grimme, ChemRxiv, 2019, preprint.
     DOI: 10.26434/chemrxiv.8326202.v1
   for GFN-FF:
   * S. Spicher and S. Grimme, Angew. Chem. Int. Ed., 2020, 59, 15665-15673.
     DOI: 10.1002/anie.202004239
   
   for ALPB and GBSA implicit solvation:
   * S. Ehlert, M. Stahn, S. Spicher, S. Grimme, J. Chem. Theory Comput.,
     2021, 17, 4250-4261. DOI: 10.1021/acs.jctc.1c00471
   
   for DFT-D4:
   * E. Caldeweyher, C. Bannwarth and S. Grimme, J. Chem. Phys., 2017,
     147, 034112. DOI: 10.1063/1.4993215
   * E. Caldeweyher, S. Ehlert, A. Hansen, H. Neugebauer, S. Spicher,
     C. Bannwarth and S. Grimme, J. Chem. Phys., 2019, 150, 154122.
     DOI: 10.1063/1.5090222
   * E. Caldeweyher, J.-M. Mewes, S. Ehlert and S. Grimme, Phys. Chem. Chem. Phys.
     2020, 22, 8499-8512. DOI: 10.1039/D0CP00502A
   
   for sTDA-xTB:
   * S. Grimme and C. Bannwarth, J. Chem. Phys., 2016, 145, 054103.
     DOI: 10.1063/1.4959605
   
   in the mass-spec context:
   * V. Asgeirsson, C. Bauer and S. Grimme, Chem. Sci., 2017, 8, 4879.
     DOI: 10.1039/c7sc00601b
   * J. Koopman and S. Grimme, ACS Omega 2019, 4, 12, 15120-15133.
     DOI: 10.1021/acsomega.9b02011
   
   for metadynamics refer to:
   * S. Grimme, J. Chem. Theory Comput., 2019, 155, 2847-2862
     DOI: 10.1021/acs.jctc.9b00143
   
   for SPH calculations refer to:
   * S. Spicher and S. Grimme, J. Chem. Theory Comput., 2021, 17, 1701-1714
     DOI: 10.1021/acs.jctc.0c01306
   
   with help from (in alphabetical order)
   P. Atkinson, C. Bannwarth, F. Bohle, G. Brandenburg, E. Caldeweyher
   M. Checinski, S. Dohm, S. Ehlert, S. Ehrlich, I. Gerasimov, C. Hölzer
   A. Katbashev, J. Koopman, C. Lavigne, S. Lehtola, F. März, M. Müller,
   F. Musil, H. Neugebauer, J. Pisarek, C. Plett, P. Pracht, F. Pultar,
   J. Seibert, P. Shushkov, S. Spicher, M. Stahn, M. Steiner, T. Strunk,
   J. Stückrath, T. Rose, and J. Unsleber
   
 * started run on 2024/08/29 at 18:09:30.161     

           -------------------------------------------------
          |                Calculation Setup                |
           -------------------------------------------------

          program call               : xtb 1396.xyz --chrg 1
          coordinate file            : 1396.xyz
          omp threads                :                    16

   ID    Z sym.   atoms
    1    6 C      1-6, 8-13, 15-21, 23, 25-35, 37-43
    2    8 O      7, 14, 22, 24, 36, 44
    3    1 H      45-82

           -------------------------------------------------
          |                 G F N 2 - x T B                 |
           -------------------------------------------------

        Reference                      10.1021/acs.jctc.8b01176
      * Hamiltonian:
        H0-scaling (s, p, d)           1.850000    2.230000    2.230000
        zeta-weighting                 0.500000
      * Dispersion:
        s8                             2.700000
        a1                             0.520000
        a2                             5.000000
        s9                             5.000000
      * Repulsion:
        kExp                           1.500000    1.000000
        rExp                           1.000000
      * Coulomb:
        alpha                          2.000000
        third order                    shell-resolved
        anisotropic                    true
        a3                             3.000000
        a5                             4.000000
        cn-shift                       1.200000
        cn-exp                         4.000000
        max-rad                        5.000000


          ...................................................
          :                      SETUP                      :
          :.................................................:
          :  # basis functions                 214          :
          :  # atomic orbitals                 214          :
          :  # shells                          126          :
          :  # electrons                       225          :
          :  max. iterations                   250          :
          :  Hamiltonian                  GFN2-xTB          :
          :  restarted?                      false          :
          :  GBSA solvation                  false          :
          :  PC potential                    false          :
          :  electronic temp.          300.0000000     K    :
          :  accuracy                    1.0000000          :
          :  -> integral cutoff          0.2500000E+02      :
          :  -> integral neglect         0.1000000E-07      :
          :  -> SCF convergence          0.1000000E-05 Eh   :
          :  -> wf. convergence          0.1000000E-03 e    :
          :  Broyden damping             0.4000000          :
          ...................................................

 iter      E             dE          RMSdq      gap      omega  full diag
   1   -126.2112024 -0.126211E+03  0.446E+00    1.96       0.0  T
   2   -126.2950527 -0.838504E-01  0.252E+00    1.33       1.0  T
   3   -126.1814315  0.113621E+00  0.193E+00    0.64       1.0  T
   4   -126.2992773 -0.117846E+00  0.923E-01    1.44       1.0  T
   5   -126.3913646 -0.920873E-01  0.472E-01    1.78       1.0  T
   6   -126.3688597  0.225049E-01  0.520E-01    1.64       1.0  T
   7   -126.3981274 -0.292677E-01  0.386E-01    1.75       1.0  T
   8   -126.3802144  0.179129E-01  0.415E-01    1.84       1.0  T
   9   -126.4119831 -0.317687E-01  0.251E-01    1.84       1.0  T
  10   -126.4146700 -0.268690E-02  0.189E-01    1.87       1.0  T
  11   -126.4120041  0.266587E-02  0.203E-01    1.88       1.0  T
  12   -126.4191528 -0.714862E-02  0.126E-01    1.88       1.0  T
  13   -126.4221553 -0.300256E-02  0.425E-02    1.89       1.0  T
  14   -126.4219826  0.172726E-03  0.435E-02    1.89       1.0  T
  15   -126.4223393 -0.356697E-03  0.284E-02    1.89       1.0  T
  16   -126.4224571 -0.117768E-03  0.173E-02    1.89       1.0  T
  17   -126.4225202 -0.631656E-04  0.718E-03    1.89       1.5  T
  18   -126.4225215 -0.132230E-05  0.583E-03    1.89       1.9  T
  19   -126.4225290 -0.749085E-05  0.134E-03    1.89       8.3  T
  20   -126.4225294 -0.397333E-06  0.596E-04    1.89      18.5  T
  21   -126.4225294  0.243773E-07  0.564E-04    1.89      19.6  T

   *** convergence criteria satisfied after 21 iterations ***

         #    Occupation            Energy/Eh            Energy/eV
      -------------------------------------------------------------
         1        2.0000           -0.8373835             -22.7864
       ...           ...                  ...                  ...
       107        2.0000           -0.5087787             -13.8446
       108        2.0000           -0.5074287             -13.8078
       109        1.9765           -0.5010502             -13.6343
       110        1.9309           -0.4999814             -13.6052
       111        1.8619           -0.4992501             -13.5853
       112        1.7334           -0.4984719             -13.5641
       113        1.4974           -0.4975008             -13.5377 (HOMO)
       114                         -0.4278812             -11.6432 (LUMO)
       115                         -0.4086342             -11.1195
       116                         -0.4080112             -11.1026
       117                         -0.4071802             -11.0799
       118                         -0.3609246              -9.8213
       ...                                ...                  ...
       214                          0.6368680              17.3301
      -------------------------------------------------------------
                  HL-Gap            0.0696197 Eh            1.8944 eV
             Fermi-level           -0.4801008 Eh          -13.0642 eV

 SCC (total)                   0 d,  0 h,  0 min,  0.288 sec
 SCC setup                      ...        0 min,  0.000 sec (  0.102%)
 Dispersion                     ...        0 min,  0.002 sec (  0.815%)
 classical contributions        ...        0 min,  0.000 sec (  0.045%)
 integral evaluation            ...        0 min,  0.006 sec (  1.960%)
 iterations                     ...        0 min,  0.261 sec ( 90.874%)
 molecular gradient             ...        0 min,  0.016 sec (  5.690%)
 printout                       ...        0 min,  0.001 sec (  0.503%)

         :::::::::::::::::::::::::::::::::::::::::::::::::::::
         ::                     SUMMARY                     ::
         :::::::::::::::::::::::::::::::::::::::::::::::::::::
         :: total energy            -124.646704152897 Eh    ::
         :: gradient norm              0.107382446934 Eh/a0 ::
         :: HOMO-LUMO gap              1.894447833293 eV    ::
         ::.................................................::
         :: SCC energy              -126.422529404242 Eh    ::
         :: -> isotropic ES            0.164612466099 Eh    ::
         :: -> anisotropic ES         -0.005872188842 Eh    ::
         :: -> anisotropic XC          0.053101452860 Eh    ::
         :: -> dispersion             -0.093656184206 Eh    ::
         :: repulsion energy           1.775060159532 Eh    ::
         :: add. restraining           0.000000000000 Eh    ::
         :: total charge               1.000000000000 e     ::
         :::::::::::::::::::::::::::::::::::::::::::::::::::::

           -------------------------------------------------
          |                Property Printout                |
           -------------------------------------------------

    * Orbital Energies and Occupations

         #    Occupation            Energy/Eh            Energy/eV
      -------------------------------------------------------------
         1        2.0000           -0.8373835             -22.7864
       ...           ...                  ...                  ...
       101        2.0000           -0.5193495             -14.1322
       102        2.0000           -0.5174319             -14.0800
       103        2.0000           -0.5155702             -14.0294
       104        2.0000           -0.5141717             -13.9913
       105        2.0000           -0.5133765             -13.9697
       106        2.0000           -0.5118470             -13.9281
       107        2.0000           -0.5087787             -13.8446
       108        2.0000           -0.5074287             -13.8078
       109        1.9765           -0.5010502             -13.6343
       110        1.9309           -0.4999814             -13.6052
       111        1.8619           -0.4992501             -13.5853
       112        1.7334           -0.4984719             -13.5641
       113        1.4974           -0.4975008             -13.5377 (HOMO)
       114                         -0.4278812             -11.6432 (LUMO)
       115                         -0.4086342             -11.1195
       116                         -0.4080112             -11.1026
       117                         -0.4071802             -11.0799
       118                         -0.3609246              -9.8213
       119                         -0.3515911              -9.5673
       120                         -0.3433392              -9.3427
       121                         -0.3253293              -8.8527
       122                         -0.3078445              -8.3769
       123                         -0.3075827              -8.3698
       124                         -0.2627294              -7.1492
       ...                                ...                  ...
       214                          0.6368680              17.3301
      -------------------------------------------------------------
                  HL-Gap            0.0696197 Eh            1.8944 eV
             Fermi-level           -0.4801008 Eh          -13.0642 eV

     #   Z          covCN         q      C6AA      α(0)
     1   6 C        3.749    -0.106    22.584     6.778
     2   6 C        3.799    -0.055    21.561     6.611
     3   6 C        3.800    -0.064    21.724     6.636
     4   6 C        3.797    -0.061    21.671     6.629
     5   6 C        3.797    -0.071    21.857     6.657
     6   6 C        3.684     0.077    19.485     6.320
     7   8 O        1.700    -0.247    18.099     5.744
     8   6 C        2.848     0.160    24.535     8.118
     9   6 C        2.918    -0.044    29.086     8.844
    10   6 C        2.959     0.019    27.587     8.615
    11   6 C        2.901     0.013    27.724     8.633
    12   6 C        2.986    -0.024    28.585     8.770
    13   6 C        2.872     0.233    23.128     7.883
    14   8 O        0.856    -0.307    19.902     5.981
    15   6 C        3.032    -0.003    28.058     8.688
    16   6 C        2.909    -0.005    28.147     8.699
    17   6 C        2.915    -0.010    28.269     8.719
    18   6 C        2.914    -0.011    28.298     8.723
    19   6 C        2.909    -0.007    28.195     8.707
    20   6 C        3.025    -0.005    28.111     8.697
    21   6 C        2.856     0.244    22.915     7.846
    22   8 O        0.856    -0.308    19.935     5.986
    23   6 C        2.849     0.164    24.455     8.105
    24   8 O        1.703    -0.229    17.790     5.695
    25   6 C        3.686     0.073    19.552     6.330
    26   6 C        3.800    -0.064    21.732     6.637
    27   6 C        3.802    -0.064    21.731     6.637
    28   6 C        3.801    -0.061    21.668     6.627
    29   6 C        3.801    -0.055    21.562     6.611
    30   6 C        3.750    -0.107    22.603     6.780
    31   6 C        2.922    -0.061    29.518     8.910
    32   6 C        2.958     0.013    27.712     8.634
    33   6 C        2.917     0.006    27.888     8.660
    34   6 C        2.998    -0.028    28.680     8.785
    35   6 C        2.888     0.229    23.210     7.898
    36   8 O        0.857    -0.327    20.273     6.037
    37   6 C        3.043    -0.006    28.120     8.697
    38   6 C        2.909    -0.007    28.198     8.707
    39   6 C        2.918    -0.011    28.280     8.720
    40   6 C        2.915    -0.008    28.224     8.712
    41   6 C        2.910    -0.004    28.132     8.697
    42   6 C        3.031    -0.004    28.089     8.693
    43   6 C        2.857     0.243    22.947     7.852
    44   8 O        0.856    -0.297    19.737     5.956
    45   1 H        0.924     0.044     2.401     2.423
    46   1 H        0.924     0.036     2.505     2.475
    47   1 H        0.924     0.047     2.352     2.398
    48   1 H        0.924     0.030     2.585     2.514
    49   1 H        0.924     0.046     2.368     2.406
    50   1 H        0.924     0.050     2.321     2.383
    51   1 H        0.924     0.037     2.489     2.467
    52   1 H        0.924     0.020     2.736     2.587
    53   1 H        0.924     0.043     2.405     2.425
    54   1 H        0.924     0.061     2.184     2.311
    55   1 H        0.924     0.062     2.181     2.310
    56   1 H        0.924     0.029     2.596     2.520
    57   1 H        0.924     0.054     2.265     2.354
    58   1 H        0.925     0.097     1.817     2.108
    59   1 H        0.924     0.108     1.714     2.047
    60   1 H        0.925     0.083     1.947     2.182
    61   1 H        0.925     0.077     2.015     2.220
    62   1 H        0.925     0.074     2.038     2.232
    63   1 H        0.925     0.074     2.040     2.234
    64   1 H        0.924     0.062     2.172     2.305
    65   1 H        0.924     0.053     2.278     2.360
    66   1 H        0.924     0.050     2.317     2.381
    67   1 H        0.924     0.053     2.285     2.364
    68   1 H        0.924     0.043     2.410     2.428
    69   1 H        0.924     0.041     2.432     2.439
    70   1 H        0.924     0.045     2.387     2.416
    71   1 H        0.924     0.043     2.408     2.427
    72   1 H        0.924     0.049     2.327     2.386
    73   1 H        0.924     0.049     2.329     2.386
    74   1 H        0.924     0.046     2.370     2.407
    75   1 H        0.924     0.047     2.355     2.400
    76   1 H        0.924     0.046     2.365     2.405
    77   1 H        0.925     0.076     2.018     2.222
    78   1 H        0.925     0.102     1.768     2.080
    79   1 H        0.925     0.080     1.981     2.201
    80   1 H        0.925     0.073     2.050     2.239
    81   1 H        0.925     0.074     2.041     2.234
    82   1 H        0.925     0.076     2.023     2.224

 Mol. C6AA /au·bohr⁶  :      74863.273840
 Mol. C8AA /au·bohr⁸  :    1796847.831370
 Mol. α(0) /au        :        425.567035


Wiberg/Mayer (AO) data.
largest (>0.10) Wiberg bond orders for each atom

 ---------------------------------------------------------------------------
     #   Z sym  total        # sym  WBO       # sym  WBO       # sym  WBO
 ---------------------------------------------------------------------------
     1   6 C    3.987 --     2 C    1.021    45 H    0.986    47 H    0.983
                            46 H    0.982
     2   6 C    3.982 --     1 C    1.021     3 C    1.008    49 H    0.969
                            48 H    0.968
     3   6 C    3.986 --     2 C    1.008     4 C    1.005    50 H    0.972
                            51 H    0.970
     4   6 C    3.993 --     5 C    1.005     3 C    1.005    53 H    0.978
                            52 H    0.976
     5   6 C    3.983 --     4 C    1.005     6 C    0.998    54 H    0.976
                            55 H    0.970
     6   6 C    3.916 --     5 C    0.998    56 H    0.965    57 H    0.960
                             7 O    0.935
     7   8 O    2.169 --     8 C    1.083     6 C    0.935
     8   6 C    3.882 --     9 C    1.352    32 C    1.278     7 O    1.083
     9   6 C    3.959 --    10 C    1.404     8 C    1.352    58 H    0.959
    10   6 C    3.923 --     9 C    1.404    23 C    1.242    11 C    1.100
    11   6 C    3.954 --    12 C    1.711    10 C    1.100    59 H    0.936
    12   6 C    3.888 --    11 C    1.711    21 C    0.987    13 C    0.984
    13   6 C    3.915 --    14 O    1.799    15 C    1.019    12 C    0.984
    14   8 O    2.072 --    13 C    1.799
    15   6 C    3.959 --    16 C    1.396    20 C    1.306    13 C    1.019
    16   6 C    3.972 --    17 C    1.429    15 C    1.396    60 H    0.963
    17   6 C    3.970 --    16 C    1.429    18 C    1.427    61 H    0.963
    18   6 C    3.970 --    17 C    1.427    19 C    1.424    62 H    0.965
    19   6 C    3.976 --    18 C    1.424    20 C    1.404    63 H    0.965
    20   6 C    3.962 --    19 C    1.404    15 C    1.306    21 C    1.008
    21   6 C    3.914 --    22 O    1.809    20 C    1.008    12 C    0.987
    22   8 O    2.083 --    21 C    1.809
    23   6 C    3.885 --    31 C    1.357    10 C    1.242    24 O    1.127
    24   8 O    2.248 --    23 C    1.127    25 C    0.949
    25   6 C    3.915 --    26 C    0.999    64 H    0.959    65 H    0.958
                            24 O    0.949
    26   6 C    3.986 --    27 C    1.005    25 C    0.999    66 H    0.975
                            67 H    0.973
    27   6 C    3.991 --    28 C    1.006    26 C    1.005    69 H    0.975
                            68 H    0.975
    28   6 C    3.980 --    29 C    1.009    27 C    1.006    70 H    0.968
                            71 H    0.968
    29   6 C    3.965 --    30 C    1.024    28 C    1.009    72 H    0.959
                            73 H    0.959
    30   6 C    3.978 --    29 C    1.024    75 H    0.985    76 H    0.977
                            74 H    0.977
    31   6 C    3.953 --    32 C    1.376    23 C    1.357    77 H    0.959
    32   6 C    3.931 --    31 C    1.376     8 C    1.278    33 C    1.098
    33   6 C    3.957 --    34 C    1.705    32 C    1.098    78 H    0.933
    34   6 C    3.907 --    33 C    1.705    43 C    0.995    35 C    0.990
    35   6 C    3.922 --    36 O    1.786    37 C    1.027    34 C    0.990
    36   8 O    2.069 --    35 C    1.786
    37   6 C    3.966 --    38 C    1.393    42 C    1.305    35 C    1.027
    38   6 C    3.974 --    39 C    1.433    37 C    1.393    79 H    0.963
    39   6 C    3.972 --    38 C    1.433    40 C    1.423    80 H    0.964
    40   6 C    3.970 --    41 C    1.425    39 C    1.423    81 H    0.964
    41   6 C    3.976 --    40 C    1.425    42 C    1.404    82 H    0.964
    42   6 C    3.962 --    41 C    1.404    37 C    1.305    43 C    1.002
    43   6 C    3.919 --    44 O    1.815    42 C    1.002    34 C    0.995
    44   8 O    2.092 --    43 C    1.815
    45   1 H    0.998 --     1 C    0.986
    46   1 H    0.994 --     1 C    0.982
    47   1 H    0.992 --     1 C    0.983
    48   1 H    0.990 --     2 C    0.968
    49   1 H    0.988 --     2 C    0.969
    50   1 H    0.991 --     3 C    0.972
    51   1 H    0.994 --     3 C    0.970
    52   1 H    0.999 --     4 C    0.976
    53   1 H    0.997 --     4 C    0.978
    54   1 H    0.995 --     5 C    0.976
    55   1 H    0.995 --     5 C    0.970
    56   1 H    0.996 --     6 C    0.965
    57   1 H    0.984 --     6 C    0.960
    58   1 H    0.989 --     9 C    0.959
    59   1 H    0.976 --    11 C    0.936
    60   1 H    0.992 --    16 C    0.963
    61   1 H    0.989 --    17 C    0.963
    62   1 H    0.990 --    18 C    0.965
    63   1 H    0.994 --    19 C    0.965
    64   1 H    0.987 --    25 C    0.959
    65   1 H    0.986 --    25 C    0.958
    66   1 H    0.997 --    26 C    0.975
    67   1 H    0.996 --    26 C    0.973
    68   1 H    0.996 --    27 C    0.975
    69   1 H    0.997 --    27 C    0.975
    70   1 H    0.988 --    28 C    0.968
    71   1 H    0.988 --    28 C    0.968
    72   1 H    0.978 --    29 C    0.959
    73   1 H    0.978 --    29 C    0.959
    74   1 H    0.986 --    30 C    0.977
    75   1 H    0.997 --    30 C    0.985
    76   1 H    0.987 --    30 C    0.977
    77   1 H    0.993 --    31 C    0.959
    78   1 H    0.977 --    33 C    0.933
    79   1 H    0.993 --    38 C    0.963
    80   1 H    0.990 --    39 C    0.964
    81   1 H    0.991 --    40 C    0.964
    82   1 H    0.994 --    41 C    0.964
 ---------------------------------------------------------------------------

Topologies differ in total number of bonds
Writing topology from bond orders to xtbtopo.mol

molecular dipole:
                 x           y           z       tot (Debye)
 q only:       19.568      -2.684       7.345
   full:       19.644      -2.521       7.203      53.564
molecular quadrupole (traceless):
                xx          xy          yy          xz          yz          zz
 q only:      456.439    -129.231    -267.440     303.759     -64.866    -188.999
  q+dip:      456.148    -127.284    -264.950     302.143     -63.532    -191.198
   full:      453.860    -126.902    -266.432     299.475     -59.662    -187.428


           -------------------------------------------------
          | TOTAL ENERGY             -124.646704152897 Eh   |
          | GRADIENT NORM               0.107382446934 Eh/α |
          | HOMO-LUMO GAP               1.894447833293 eV   |
           -------------------------------------------------
########################################################################
[WARNING] Runtime exception occurred
-3- restart_readRestart: Dimension missmatch in restart file.
-2- restart_readRestart: Multiplicity missmatch in restart file.
-1- restart_readRestart: Number of electron missmatch in restart file.
########################################################################

------------------------------------------------------------------------
 * finished run on 2024/08/29 at 18:09:30.483     
------------------------------------------------------------------------
 total:
 * wall-time:     0 d,  0 h,  0 min,  0.321 sec
 *  cpu-time:     0 d,  0 h,  0 min,  4.549 sec
 * ratio c/w:    14.165 speedup
 SCF:
 * wall-time:     0 d,  0 h,  0 min,  0.288 sec
 *  cpu-time:     0 d,  0 h,  0 min,  4.110 sec
 * ratio c/w:    14.262 speedup

