90
 energy: 1.450783593499 gnorm: 2.476988446788 xtb: 6.6.1 (8d0f1dd)
C            1.12918000000000       -0.61679000000000        0.13778000000000
C            2.63457000000000       -0.86459000000000        0.22576000000000
C            3.23307000000000       -0.37744000000000        1.55355000000000
C            4.77589000000000       -0.36431000000000        1.57090000000000
C            5.31509000000000        0.40123000000000        2.79757000000000
C            6.84190000000000        0.58316000000000        2.82804000000000
O            7.16035000000000        1.68777000000000        3.70605000000000
C            8.44818000000000        2.16916000000000        3.66684000000000
C            9.09991000000000        2.37419000000000        4.87693000000000
C           10.45579000000000        2.76550000000000        4.89837000000000
C           11.11159000000000        2.97994000000000        6.19082000000000
C           11.94206000000000        4.00730000000000        6.47686000000000
C           12.36593000000000        5.14013000000000        5.57057000000000
O           11.72676000000000        5.72126000000000        4.71860000000000
C           13.77039000000000        5.39903000000000        5.93932000000000
C           14.68690000000000        6.10715000000000        5.17554000000000
C           16.03152000000000        5.97280000000000        5.51643000000000
C           16.41150000000000        5.15349000000000        6.59547000000000
C           15.45501000000000        4.50700000000000        7.39676000000000
C           14.11370000000000        4.65777000000000        7.07378000000000
C           12.86527000000000        4.04509000000000        7.60468000000000
C           12.53046000000000        3.81024000000000        8.89212000000000
C           11.21329000000000        3.39972000000000        9.27891000000000
N           10.13968000000000        3.06438000000000        9.56511000000000
C           13.43486000000000        4.07144000000000        9.95154000000000
N           14.17608000000000        4.29714000000000       10.82145000000000
C           11.18736000000000        2.87529000000000        3.70118000000000
O           12.55361000000000        2.91373000000000        3.79505000000000
C           13.32354000000000        3.18752000000000        2.62099000000000
C           14.79136000000000        3.16018000000000        3.04666000000000
C           15.75062000000000        3.61242000000000        1.94985000000000
C           17.17231000000000        3.77672000000000        2.49837000000000
C           18.17105000000000        4.11167000000000        1.39243000000000
C           19.57396000000000        4.30597000000000        1.94790000000000
C           10.48855000000000        2.88946000000000        2.51629000000000
C            9.12347000000000        2.56139000000000        2.51151000000000
C            8.52691000000000        2.54251000000000        1.20407000000000
C            7.44536000000000        3.19935000000000        0.77479000000000
C            6.52621000000000        3.98378000000000        1.63651000000000
O            6.76548000000000        4.67687000000000        2.59939000000000
C            5.20713000000000        3.70302000000000        1.07208000000000
C            4.03473000000000        3.84570000000000        1.80779000000000
C            2.87621000000000        3.34840000000000        1.24260000000000
C            2.92993000000000        2.76382000000000       -0.03729000000000
C            4.14327000000000        2.61582000000000       -0.76338000000000
C            5.32137000000000        3.07675000000000       -0.20172000000000
C            6.78933000000000        2.93389000000000       -0.52671000000000
C            7.57622000000000        2.74394000000000       -1.64086000000000
C            9.04223000000000        3.08358000000000       -1.42669000000000
N           10.25841000000000        3.36533000000000       -1.24901000000000
C            7.00807000000000        2.68327000000000       -3.04938000000000
N            6.53674000000000        2.63293000000000       -4.21786000000000
H            0.70510000000000       -1.14546000000000       -0.72294000000000
H            0.90576000000000        0.44587000000000        0.00341000000000
H            0.60803000000000       -0.95636000000000        1.03764000000000
H            3.11631000000000       -0.36573000000000       -0.62293000000000
H            2.82256000000000       -1.93794000000000        0.11606000000000
H            2.87025000000000       -1.01720000000000        2.36637000000000
H            2.85654000000000        0.62555000000000        1.76868000000000
H            5.14662000000000        0.10530000000000        0.65213000000000
H            5.15202000000000       -1.39365000000000        1.57403000000000
H            5.00410000000000       -0.10581000000000        3.71683000000000
H            4.84511000000000        1.38770000000000        2.83331000000000
H            7.17863000000000        0.73536000000000        1.80472000000000
H            7.33299000000000       -0.32173000000000        3.19923000000000
H            8.55623000000000        2.21589000000000        5.80441000000000
H           10.96414000000000        2.15382000000000        6.88086000000000
H           14.37964000000000        6.65063000000000        4.28666000000000
H           16.79592000000000        6.44632000000000        4.90145000000000
H           17.47357000000000        4.99335000000000        6.78847000000000
H           15.78672000000000        3.85090000000000        8.19584000000000
H           13.06197000000000        4.17811000000000        2.23134000000000
H           13.15385000000000        2.42105000000000        1.85623000000000
H           15.05390000000000        2.15126000000000        3.38856000000000
H           14.91638000000000        3.79154000000000        3.92564000000000
H           15.41568000000000        4.56920000000000        1.53141000000000
H           15.74402000000000        2.87833000000000        1.13649000000000
H           17.48333999999999        2.85859000000000        3.01112000000000
H           17.18393000000000        4.57823000000000        3.24500000000000
H           17.86125000000000        5.02552000000000        0.87249000000000
H           18.18592000000000        3.30363000000000        0.65249000000000
H           19.60871000000000        5.15454000000000        2.63897000000000
H           20.27941999999999        4.50251000000000        1.13446000000000
H           19.91320000000000        3.41348000000000        2.48346000000000
H           10.98371000000000        3.13041000000000        1.57980000000000
H            9.04034000000000        1.81783000000000        0.57914000000000
H            4.05279000000000        4.24341000000000        2.82079000000000
H            1.94816000000000        3.36004000000000        1.81511000000000
H            2.00400000000000        2.35876000000000       -0.44353000000000
H            4.11797000000000        2.07809000000000       -1.70509000000000
